% Model:              111(6.3).mph
% Version:            COMSOL 6.3.0.290
% Date:               Apr 28 2026, 16:37
% Dimension:          2
% Nodes:              3379
% Expressions:        8
% Description:        , , , , , , , 
% Length unit:        m
% X                       Y                        real(emw.Ez) (V/m) @ freq=0.09549 imag(emw.Ez) (V/m) @ freq=0.09549 real(emw.Hx) (A/m) @ freq=0.09549 imag(emw.Hx) (A/m) @ freq=0.09549 real(emw.Hy) (A/m) @ freq=0.09549 imag(emw.Hy) (A/m) @ freq=0.09549 real(d(emw.Ez,x)) (V/m^2) @ freq=0.09549 imag(d(emw.Ez,x)) (V/m^2) @ freq=0.09549
-3.0526754638472906       -3.049455234301243       0.8407595995336896                -0.29436985887825795              3.1615236048850167E-4             2.996981217924644E-4              -0.0028687311862618933            3.6058406528368135E-4             -0.2718655361994148                      -2.162905178717471
-3.1317816636301115       -3.010692959690219       0.8584322657829017                -0.13088371275386607              3.064787235346093E-4              2.8579145749035243E-4             -0.0029071080417086676            -5.495094328660747E-5             0.04143074833194318                      -2.1918397473470534
-3.131781663630112        -3.131781663630112       0.8354939179025439                -0.1001688579870821               3.6647759044784885E-4             2.1654793695891303E-4             -0.002919569446793861             -7.539895186717547E-7             5.684770474290619E-4                     -2.2012351336146603
-3.010692959690219        -3.131781663630112       0.8077431386609936                -0.3637330727236297               3.565977377242582E-4              2.7132126746432677E-4             -0.0028290461137363194            6.052392080493398E-4              -0.45632543882878435                     -2.1329842682834785
-3.041563221341172        -2.943621221382491       0.863786894512513                 -0.34076327263896                 2.475689519345782E-4              3.539284430141266E-4              -0.0028365715849886924            3.7102032330707063E-4             -0.27973404497894727                     -2.1386581637052577
-3.1317816636301115       -2.8797932657906435      0.8894524915288983                -0.15724145858356786              2.2761627702366414E-4             3.424098985407162E-4              -0.0028809539142804685            -1.0921335153307244E-4            0.08234236959782157                      -2.1721206123056835
-2.943298068883929        -3.0249710589177243      0.7953504601483364                -0.5300342883137649               2.8128446531203E-4                3.600529159667495E-4              -0.002693678680883455             8.815829557363004E-4              -0.6646772446168905                      -2.0309227984081266
-2.8797932657906435       -3.131781663630112       0.7172198992986056                -0.6309394738019315               3.403837886371603E-4              3.307123132213787E-4              -0.00255853848756162              0.001217438077080773              -0.917898175435895                       -1.9290326577813381
-3.037662773181766        -2.8151035667565334      0.8990967673952993                -0.3685923036283543               1.559038896770732E-4              3.9559276150166853E-4             -0.0027956065135565124            3.42259961732125E-4               -0.2580499167169004                      -2.1077721868066526
-3.1317816636301115       -2.748893571891069       0.9250232680536559                -0.1753654570635503               1.3973682414386454E-4             3.7808493204718427E-4             -0.002842645365256546             -1.5602255172791722E-4            0.11763457891945506                      -2.1432375439060385
-2.941478513128614        -2.8815873618228416      0.8360531688107163                -0.5583732712573988               1.752190928478721E-4              4.133921695696346E-4              -0.0026518712579911333            8.334659028271366E-4              -0.6283989682066616                      -1.9994017231970114
-2.847949775707449        -2.9399478010103324      0.7429212471241261                -0.7296934409337618               1.9227287639851754E-4             4.307465373737081E-4              -0.002423012604502869             0.0012748040570289216             -0.9611497619582743                      -1.826851722975804
-2.8072799517074922       -3.034686171470736       0.6705838629181903                -0.7864182197324147               2.570075962400388E-4              4.123269888399639E-4              -0.0023178846999167006            0.0014796625436693694             -1.1156046247145912                      -1.7475896121352863
-2.748893571891069        -3.131781663630112       0.5702339094205264                -0.8633370374140664               3.18430334377722E-4               3.891640751678132E-4              -0.0021275516437372763            0.0017425839855574599             -1.3138365646673298                      -1.6040863257823983
-3.0350060548000224       -2.684929750131291       0.9381776229861903                -0.3846176624077105               5.796367450003805E-5              4.135754830894124E-4              -0.002744701107046533             3.1652205938043255E-4             -0.23864459824286824                     -2.069391606607145
-3.1317816636301115       -2.6179938779914944      0.9630318780675762                -0.18463240923906465              4.823657687542975E-5              3.918762017776723E-4              -0.0027942725732627385            -1.9280778211081041E-4            0.14536912779475403                      -2.106766450757447
-2.9318667846801          -2.7519965416897914      0.8716015135834655                -0.5892576685777052               6.891889572757988E-5              4.375042572047471E-4              -0.002583681129976469             8.373232326090166E-4              -0.6313072360155115                      -1.9479891747760802
-2.8142646013160224       -2.8202871950416393      0.7497705197206547                -0.801629496813825                7.955624004523415E-5              4.659746547914745E-4              -0.0022724218339640855            0.0013744198223646384             -1.0362559467964851                      -1.7133124833896052
-2.7402388631329853       -2.930435487863399       0.6250969517935038                -0.9127339494486586               1.4918500387629344E-4             4.7255199394370673E-4             -0.002040020728847915             0.0016924707125504273             -1.2760532205086073                      -1.5380916205208113
-2.680058319676464        -3.0339325180965853      0.506292919835862                 -0.9860108559430444               2.222823235091496E-4              4.642643051656146E-4              -0.001822046432540427             0.0019300362468843305             -1.455167850333904                       -1.3737479773908683
-2.6179938779914944       -3.131781663630112       0.3772617107878628                -1.0464523375167851               2.9122661023439514E-4             4.462777166131833E-4              -0.0015653968901904913            0.002143666905540186              -1.6162365695475944                      -1.1802447914100722
-3.0347655544769174       -2.5537767275656673      0.9787423191770576                -0.3860236155581496               -3.8911160746790865E-5            4.075059818819729E-4              -0.0026882271545982266            2.905591868723946E-4              -0.21906966153533028                     -2.0268125720855275
-3.1317816636301115       -2.4870941840919194      1.0013422110790373                -0.18495227644854065              -4.1501893451553173E-5            3.842799766403577E-4              -0.0027383872483374475            -2.1751053893544862E-4            0.16399398916917582                      -2.0646312171482197
-2.9321380193991713       -2.6202389588325845      0.9150461541654348                -0.5903573276669908               -3.566453202940756E-5             4.331603997787597E-4              -0.002528068918279492             8.061831675051748E-4              -0.6078289092900078                      -1.9060598572940683
-2.8286630299830846       -2.687457086445405       0.8105955339749241                -0.779527932527779                -2.822855677227655E-5             4.605643893865259E-4              -0.002264293940834374             0.001282235830435844              -0.9667530130631059                      -1.7071843866803345
-2.7316948985248914       -2.728799950399026       0.6876840832362869                -0.9340662327075544               -3.6299412742977524E-5            4.843026506080969E-4              -0.001924146356879473             0.0016662665298882225             -1.2562963458820953                      -1.450727115818732
-2.6772636494069224       -2.821014508866442       0.5807971382070479                -1.0096285069632762               2.427655792167331E-5              5.040061437189823E-4              -0.0017332529803717252            0.001867218741618627              -1.4078060382185116                      -1.3068013710125477
-2.6139160000598793       -2.928479590320405       0.4452464189487051                -1.0815133224664215               1.0181518034187837E-4             5.155662023702978E-4              -0.0014845067625581451            0.0020759526380650403             -1.565182800377295                       -1.119256966269475
-2.551423198575084        -3.033477651307854       0.3024446250880139                -1.1339438981473398               1.82826084255102E-4               5.142162403261392E-4              -0.001213746964238146             0.002251000210743916              -1.6971614616343                         -0.9151152283543488
-2.4870941840919194       -3.1317816636301123      0.15203112815618264               -1.1691606167381858               2.594750273783444E-4              5.015828011203108E-4              -9.10249494984715E-4              0.0023922737353228238             -1.8036758814554024                      -0.6862906347083813
-2.931535545212328        -2.4888952002863856      0.9561910468045528                -0.5830532334725625               -1.3403387823920674E-4            4.0478633183252725E-4             -0.0024645962808531375            7.934207164140856E-4              -0.5982065467311739                      -1.858204102508201
-3.034643455899127        -2.4224946992893126      1.0176820304256093                -0.3779087772171064               -1.2930862490918678E-4            3.795718568389022E-4              -0.002626597139668858             2.778679080352392E-4              -0.20950095992505502                     -1.980346078782311
-3.1317816636301115       -2.3561944901923444      1.0379297107344396                -0.17674290024693054              -1.2456213741583543E-4            3.5707171822715314E-4             -0.00267790262376153              -2.286927503262016E-4             0.1724249160689837                       -2.019028301003782
-2.8282314681945397       -2.554207045767954       0.8550580807282033                -0.7719551509494359               -1.362563958296105E-4             4.322093551370194E-4              -0.002199745647472375             0.0012653085950294623             -0.953990574638354                       -1.6585176316150176
-2.7233304479885607       -2.6177299222720496      0.7167536549146013                -0.9386630598718694               -1.3678224436115537E-4            4.614222513532561E-4              -0.0018369055418325623            0.0016782167500056244             -1.2653063197348295                      -1.3849511338919023
-2.6147182419614428       -2.697260466086625       0.535954921700086                 -1.0788504967757928               -1.2051414421592609E-4            4.993130832599039E-4              -0.0013870147917301296            0.002018380726184713              -1.5217759496584287                      -1.0457520350311957
-2.548716830574872        -2.8205255345396543      0.38306284587291234               -1.1484131712584544               -3.2620522749009975E-5            5.356100486600205E-4              -0.001117204863998388             0.002190263344329145              -1.6513683655308065                      -0.8423264604234902
-2.4844857381778933       -2.928399866058592       0.22931535752620266               -1.1948863976309323               5.117062523780987E-5              5.559910709291036E-4              -8.288696965935418E-4             0.0023217034912714277             -1.750468823557094                       -0.6249336179805046
-2.4207196004774802       -3.0334711006468966      0.07100794869981104               -1.2200139328279347               1.392640899516805E-4              5.621765088653353E-4              -5.263925214116168E-4             0.0024161666418928245             -1.8216901490878488                      -0.39687828404825426
-2.3561944901923444       -3.131781663630112       -0.08943397645882539              -1.224437962106978                2.2395120812153786E-4             5.547786043651919E-4              -2.0655678582709062E-4            0.0024705564072357157             -1.8626977923598065                      -0.1557353104062723
-2.827514761431674        -2.423017418842599       0.8945766529204199                -0.7549292630208013               -2.3085284967427734E-4            3.8043647349294E-4                -0.002131947317370562             0.0012654710701894064             -0.9541130742181468                      -1.607400482685951
-2.9309226824281076       -2.357668955459798       0.9934233657938475                -0.5665913520965226               -2.2065920406372152E-4            3.551518372025221E-4              -0.0023986281903469494            7.959470734993458E-4              -0.6001113159368653                      -1.8084668788640925
-3.0344181473527154       -2.291339994309958       1.052856424852277                 -0.36161749025668266              -2.0837761507323132E-4            3.327904611097117E-4              -0.0025629369990734243            2.8051218964929785E-4             -0.21149463936927224                     -1.9323489543284287
-3.1317816636301115       -2.22529479629277        1.0710010481299828                -0.16087077357240104              -1.9677702543731095E-4            3.131455606250527E-4              -0.0026159583040785413            -2.256571673916356E-4             0.17013621154307979                      -1.9723248348595566
-2.725510715485957        -2.4878571582555953      0.7621423239199955                -0.9173166015117395               -2.375863232897817E-4             4.0898686409683935E-4             -0.0017805363041601694            0.0016647200254740913             -1.255130345239633                       -1.3424510499991185
-2.6231477467556514       -2.5544221181579956      0.5993849281156951                -1.0506848652631333               -2.3957355527226036E-4            4.4217510342617317E-4             -0.001355433951977459             0.00198523010428848               -1.4967817459071535                      -1.0219413823717864
-2.514261578286268        -2.593360638753611       0.41255733732446415               -1.1479599591740257               -2.636627958697379E-4             4.639275181664165E-4              -8.267564224651844E-4             0.0022227833877178547             -1.675887139054934                       -0.6233402963133637
-2.475582972811623        -2.7153884077755253      0.3014102469963373                -1.1900866659776508               -1.7203235194797114E-4            5.230998129584775E-4              -6.839339219869139E-4             0.002286925697054475              -1.7242477988837315                      -0.5156580124517108
-2.41779952099215         -2.8228409108285284      0.15612665064231754               -1.224904654452554                -9.038359167806797E-5             5.643845900375357E-4              -4.237640071296028E-4             0.002357871940433641              -1.7777383447913462                      -0.31950061057097945
-2.3543309493134124       -2.9290128317327397      -0.0041830983204896146            -1.2417778539198074               -2.043400845417803E-6             5.934127165775952E-4              -1.2429141215723654E-4            0.0024009442586396842             -1.810213098980013                       -0.0937106063866844
-2.290093392414576        -3.033628488999322       -0.16810435949036953              -1.2367892931407134               9.285744127490611E-5              6.073771677062522E-4              1.8430964338665096E-4             0.002407137617917096              -1.814882636829681                       0.13896188115415997
-2.22529479629277         -3.131781663630112       -0.3299248713860833               -1.2098342640467503               1.855261166825927E-4              6.056952689402407E-4              4.979671743056164E-4              0.002372488693740909              -1.788758774860126                       0.3754467428997357
-2.7230563427037975       -2.3565177827747683      0.7958310764205002                -0.8926768332202312               -3.242433622517254E-4             3.3378993166805886E-4             -0.0017039939470676598            0.0016839262973233906             -1.2696110832905325                      -1.2847412648022851
-2.826041793614266        -2.2921668970045554      0.9271809805677352                -0.7306001920888652               -3.0872910579584744E-4            3.092496738715309E-4              -0.002062284904140717             0.0012848848479061474             -0.9687502631479067                      -1.5548778918421835
-2.9306085658918795       -2.2261667782089227      1.0251223422333071                -0.5417374106202733               -2.912124123819742E-4             2.882728876822548E-4              -0.0023343190017551057            8.126074259875079E-4              -0.6126725356316461                      -1.7599803989490237
-3.034200132089594        -2.160213018729296       1.082648752312531                 -0.3382333194959582               -2.724047073301386E-4             2.7110286986589785E-4             -0.0025007422633494844            2.98019297725875E-4               -0.2246942779079171                      -1.885456684801578
-3.1317816636301115       -2.0943951023931944      1.099091413913944                 -0.13856491827848286              -2.5496899400709934E-4            2.562545859360128E-4              -0.002555718185889855             -2.08468930696005E-4              0.1571769888943924                       -1.9269062664622012
-2.62096276989001         -2.4199496877681876      0.6368991478307908                -1.0235579098551335               -3.373444873504496E-4             3.623619263113068E-4              -0.001275844577349497             0.0019982913210201373             -1.5066293654556642                      -0.9619342714308629
-2.5150996142588964       -2.4691137461097026      0.45370776777399796               -1.1182521378304537               -3.5890915439610194E-4            3.8480341444798463E-4             -7.664025383471196E-4             0.002226661512989681              -1.6788110858068352                      -0.5778359530901925
-2.4338758840557784       -2.522329011589238       0.2979163723542354                -1.167219809286245                -3.62486604306066E-4              4.1554638284415133E-4             -3.583923291245743E-4             0.0023258905898587505             -1.7536257234652102                      -0.27021305739219265
-2.3969585017297663       -2.6127200512560105      0.20252538319160587               -1.1978958572410348               -3.080684311740709E-4             4.7630665110139645E-4             -2.038739923858121E-4             0.0023464423365034855             -1.769120894104572                       -0.1537125946302669
-2.347297083130534        -2.7181198056308227      0.0740869604223404                -1.2230258708700552               -2.3425336046072032E-4            5.380796496591795E-4              1.4119315964272192E-5             0.0023605389133188725             -1.7797491325195904                      0.010645382796868517
-2.2880950368011654       -2.823768147558292       -0.07602902698884828              -1.231721236121384                -1.5111145987906985E-4            5.893869231789996E-4              2.851092067312001E-4              0.0023506994726128724             -1.7723305994201464                      0.2149606009416617
-2.159553548380862        -3.0337264674261206      -0.39754064717713183              -1.1844371590871867               4.4285262992092466E-5             6.499348538136746E-4              8.704987122545659E-4              0.0022242348440161485             -1.6769814773321823                      0.6563201814861171
-2.0943951023931944       -3.1317816636301115      -0.5522426611882659               -1.12763656742074                 1.4514928477311686E-4             6.542766834339261E-4              0.0011555758848590014             0.0021042974759411274             -1.5865536408818677                      0.8712566300153789
-2.224432351160587        -2.929338059563869       -0.2363336778925876               -1.2193346195573644               -5.762918786284292E-5             6.27779432729777E-4               5.777846373413959E-4              0.002305990200092523              -1.738621649089055                       0.4356258231073636
-2.6179400689438173       -2.2891792747926307      0.6632284989760228                -0.9895109823903979               -4.09458989066957E-4              2.648585299966451E-4              -0.0011970399773994064            0.002030284555183372              -1.53075094651804                        -0.9025188482796578
-2.7211658672590016       -2.225717917805351       0.8217954986469426                -0.859879623772514                -3.882357027797387E-4             2.4208466610349294E-4             -0.001633763976002305             0.0017173335432538346             -1.2947987709957023                      -1.2317907587228472
-2.825516631661074        -2.1605939605937685      0.9530770232552729                -0.6979047082373514               -3.658481370015345E-4             2.2351560258434473E-4             -0.0019997512332855824            0.0013160034621999704             -0.9922124168460108                      -1.5077300791839232
-2.9301670751400577       -2.0949289624032605      1.049448919147281                 -0.511116226954103                -3.4254359610526655E-4            2.0942611210615224E-4             -0.002274442629989631             8.448514385383955E-4              -0.636983193271138                       -1.7148360803755185
-3.034011936427836        -2.029160229668715       1.105815542459179                 -0.3093440799279432               -3.1886996921276956E-4            1.9920701249459354E-4             -0.0024433328431317375            3.2955263825540566E-4             -0.24846911810911995                     -1.8421723461048132
-3.1317816636301115       -1.9634954084936198      1.121134208125996                 -0.11131144326297164              -2.9710432378672705E-4            1.907051336044199E-4              -0.0025001752764045953            -1.7793512549808512E-4            0.1341557571718805                       -1.8850291999939255
-2.514024341272569        -2.3499349725418326      0.48221634585751655               -1.0833551617653419               -4.304243316998611E-4             2.9052849532918004E-4             -7.007280053315483E-4             0.002248056831823085              -1.6949422751377468                      -0.5283200597051708
-2.3998943734587543       -2.4085642100182363      0.2693294325199514                -1.13814302757243                 -4.5579489248953473E-4            3.179423081282353E-4              -1.1389377838755605E-4            0.0023646038546908297             -1.7828139309178137                      -0.08587121870388305
-2.332857991557072        -2.5128474763624653      0.12163776987303755               -1.1704580379937772               -4.2277573583439305E-4            3.9897934959882395E-4             2.0108188942307876E-4             0.002359871933058963              -1.7792462568701846                      0.15160746397650302
-2.2778755005373204       -2.614274967424399       -0.008989521041769144             -1.1872903628921645               -3.696870168350764E-4             4.764109698202333E-4              4.479438910776094E-4              0.0023259629285297175             -1.7536802638441786                      0.33773124732857635
-2.0288678665094926       -3.033752979592751       -0.6010450046514794               -1.0674892679047552               -5.605025748516866E-6             6.900806474724905E-4              0.0014870890012838405             0.0018791556442545607             -1.4168059712386387                      1.1212038679308218
-1.9634954084936198       -3.131781663630112       -0.740394291450037                -0.9847115999634839               1.038429904283008E-4              7.005697128096512E-4              0.0017217305204195697             0.001684055475234048              -1.2697084781155596                      1.2981139107090411
-2.2207464093471767       -2.7187269913593326      -0.14829834035361492              -1.188905597554597                -2.989086096108033E-4             5.487857858370531E-4              6.991116187690371E-4              0.002266080885752232              -1.7085316695611519                      0.52710137080061
-2.1589668703793397       -2.8238579161512285      -0.29771047486735963              -1.1704390101813245               -2.1382460248381551E-4            6.109725365121862E-4              9.655790364515234E-4              0.002172526928645334              -1.6379958384993045                      0.7280068304773414
-2.0939658872552096       -2.929418040322878       -0.45163498336696856              -1.1295803568112168               -1.1507365914697587E-4            6.595244728421724E-4              0.0012346697393731392             0.0020417284866518907             -1.5393791995787245                      0.9308901391962343
-2.513211121741291        -2.222449558832598       0.503268049961135                 -1.039930500743839                -4.806069101783111E-4             1.7657221247750583E-4             -6.38068136612378E-4              0.0022852259964525855             -1.7229662946243913                      -0.4810770990543161
-2.616169131188486        -2.159377302887          0.6810637191407078                -0.9487658055434519               -4.540685332395098E-4             1.559202127548863E-4              -0.001131624215048921             0.0020743367330323726             -1.563964474526407                       -0.8531980573198107
-2.7201500424090983       -2.0948031532493263      0.8393132190405587                -0.8208284656282326               -4.2712844675797814E-4            1.4029626688362028E-4             -0.0015746558017580823            0.00176272371258478               -1.3290210894823258                      -1.1872256294456236
-2.824792962607179        -2.029495954883343       0.9697823770133392                -0.661095855672729                -4.0007418323256345E-4            1.2983677590451635E-4             -0.0019446079220988932            0.0013622943287521158             -1.0271138239462767                      -1.4661542933771206
-2.9298094503700702       -1.9638149113161698      1.0656681466301559                -0.4763245977256421               -3.731127899286784E-4             1.2410669151170298E-4             -0.0022226775807862096            8.902408852380876E-4              -0.671204966923555                       -1.6758073649856537
-3.033892068087282        -1.8981550758927344      1.1216183776946986                -0.2766764610028462               -3.4663461122477686E-4            1.2211751798650174E-4             -0.0023936832824262705            3.7345127162149864E-4             -0.2815668799004103                      -1.8047386219255765
-3.1317816636301115       -1.832595714594045       1.1364995678625978                -0.08073732186459892              -3.2235800330925914E-4            1.2103238651336645E-4             -0.002451966903025823             -1.3553580445940084E-4            0.10218841513305668                      -1.8486820717102321
-2.4126111089486195       -2.280808120137887       0.3170218279872307                -1.0906041086197067               -5.067600670534715E-4             1.9964010328314674E-4             -1.2274019945830632E-4            0.002389729277075934              -1.801757464719257                       -0.09254105589137279
-2.3216453844112968       -2.319528264365596       0.14633699885906862               -1.0976950989732666               -5.3393747512084E-4               2.1085487090458034E-4             3.586797619610341E-4              0.0023975271824313977             -1.8076367642358                         0.2704297699142615
-2.2690977525223577       -2.404256326917118       0.03648218203570461               -1.112326596431094                -5.231204547296939E-4             2.8566041075721847E-4             6.04617485094649E-4               0.0023454858224146668             -1.7683997218713108                      0.4558566853237965
-2.213314984138518        -2.508995181069171       -0.08675179377467357              -1.1216437208206953               -4.881037211766988E-4             3.8054379290335555E-4             8.488730370956694E-4              0.002262699663099306              -1.705982366921213                       0.6400153129719682
-2.153885567394076        -2.613263770354634       -0.21915066797719393              -1.1142716541781563               -4.364323183542881E-4             4.714580408745031E-4              0.001100061769025912              0.002150096258335832              -1.6210840367916843                      0.8294012727751037