% Model:              111(6.3).mph
% Version:            COMSOL 6.3.0.290
% Date:               Mar 22 2026, 11:13
% Dimension:          2
% Nodes:              705
% Expressions:        8
% Description:        , , , , , , , 
% Length unit:        m
% X                       Y                        real(emw.Ez) (V/m) @ freq=0.09549 imag(emw.Ez) (V/m) @ freq=0.09549 real(emw.Hx) (A/m) @ freq=0.09549 imag(emw.Hx) (A/m) @ freq=0.09549 real(emw.Hy) (A/m) @ freq=0.09549 imag(emw.Hy) (A/m) @ freq=0.09549 real(d(emw.Ez,x)) (V/m^2) @ freq=0.09549 imag(d(emw.Ez,x)) (V/m^2) @ freq=0.09549
-0.9420505332460799       -0.09728659041916467     0                                 0                                 0.001099907211340502              0.004983303294859596              -9.002823529125947E-4             -0.004108891129833442             3.097934705790067                        -0.6787758200376861
-0.9773080999667362       -0.06142859772031447     0                                 0                                 6.875525892366076E-4              0.004796483580061202              -9.129682796214666E-4             -0.006457289006138549             4.868529996374996                        -0.6883404863636388
-0.9872002710993858       -0.11465236115502803     -0.2079870108681011               0.03856998243347409               9.433739842659991E-4              0.003627455414904704              -5.96746556960498E-4              -0.004620184582841323             3.4834289140487726                       -0.4499223296392363
-0.942810092631284        -0.16394628858395896     -0.2132736942585485               0.06136692808127864               0.0013227824886741471             0.0035689936611834386             -5.541288643102655E-4             -0.0032670732017828063            2.463238654505286                        -0.4177903443979527
-0.8855092581793589       -0.13474030222755823     -2.7755575615628914E-17           0                                 0.0015152563169594788             0.004321594755949661              -8.564657574693565E-4             -0.0024422268068406707            1.841338440288453                        -0.6457399114618672
-0.9952188713872381       -0.028324254177635684    0                                 0                                 3.1163990664885544E-4             0.002973343711728305              -9.265166407799059E-4             -0.008987411652376258             6.776138279976058                        -0.6985553927491015
-1.0144926983894713       -0.07164630320846627     -0.2080855303900088               0.026244224704785712              5.927365574683665E-4              0.002989645492338957              -6.135733601504095E-4             -0.0060711238330498594            4.577377358332876                        -0.4626090463086163
-0.8770924615520614       -0.22184361478385448     -0.22384180836947995              0.10164202636825859               0.0017003643846797744             0.003046751166754819              -4.8427050149228327E-4            -0.0022674942228274957            1.7095972675140025                       -0.36512001563402796
-0.802480396279144        -0.17303676043755234     0                                 1.1102230246251565E-16            0.0019266345740012538             0.0034020393410240553             -7.717774530875003E-4             -0.001353955872457118             1.0208269712814715                       -0.5818884174628768
-1.020268635975326        -0.015546671741811471    -0.14452255561666788              0.013372802145312002              1.3969283074464302E-4             9.883952124078088E-4              -7.162498623195894E-4             -0.00810293584835429              6.109279946880653                        -0.5400229006766503
-1                        0                        0                                 0                                 -7.330429180329835E-7             -1.2606273674375894E-5            -9.249433731179738E-4             -0.010001326584853086             7.5405883855611355                       -0.6973692137199204
-0.7769701578004099       -0.2888783090657629      -0.21589507804761565              0.16243350132935785               0.002045729353873892              0.0022639648602337556             -4.1652971281763636E-4            -0.0015808760656920759            1.191915452298407                        -0.31404625057146074
-0.6853090223371576       -0.21119319317219157     0                                 1.1102230246251565E-16            0.002267463633510678              0.0023470236550011798             -6.35222945695837E-4              -6.475668765747257E-4             0.4882387578232661                       -0.47893194226956864
-0.9952188713872379       0.0283242541776359       0                                 -1.1102230246251565E-16           -3.1108458018220186E-4            -0.0029710316097506296            -9.24621159146003E-4              -0.008973379602909792             6.76555869252486                         -0.6971262776539802
-1.0235354427438377       0.02039668104334499      -0.1681019397516623               0.01567122699412271               -1.780018846006174E-4             -0.00119774202022509              -6.801342592610734E-4             -0.007762900893220352             5.852907593511951                        -0.5127932232283577
-0.6387525520156496       -0.3669078960392747      -0.17777337591882136              0.24744825771149462               0.0022487300498676218             0.0013001742991836447             -3.8037742156585736E-4            -0.0011998085101576816            0.9046062079698923                       -0.2867889117362854
-0.5231968396313796       -0.24714144155660703     0                                 -1.1102230246251565E-16           0.002423586916569904              0.0011693918602223372             -4.31991188974846E-4              -2.010598704482843E-4             0.15159086257625995                      -0.3257035668830046
-0.9773080999667357       0.061428597720314886     -5.551115123125783E-17            0                                 -6.857674041939884E-4             -0.004765780861678072             -9.12287336496906E-4              -0.0064834856654477305            4.888281198703145                        -0.6878270832892839
-1.014572448090465        0.06330708922224194      -0.1899807837994576               0.022760399191203318              -5.352420393948913E-4             -0.002883175159941512             -6.412564639429976E-4             -0.0064209387359215496            4.841123389552913                        -0.4834809665647571
-0.4456017888653848       -0.4524455859324773      -0.06811965641887108              0.32868214778782373               0.002172293696489887              2.2463227909278065E-4             -4.5761928260131695E-4            -9.858141365062859E-4             0.7432632626275225                       -0.3450260941001957
-0.3013974083500545       -0.27651459735133893     0                                 0                                 0.0021896653682954227             -8.509538752437102E-5             -1.6802555253683132E-4            8.633086440292053E-6              -0.006508991661346479                    -0.1266843472400551
-0.9855796591937533       0.11051783351017208      -0.1908384427150185               0.034935770484860296              -9.291277158390577E-4             -0.0036983445831568745            -6.218308663987676E-4             -0.0047397367698740174            3.5735663398551125                       -0.4688348659718169
-0.9420505332460795       0.097286590419165        0                                 0                                 -0.0010998475702404603            -0.0049662687950087605            -8.975237135587942E-4             -0.004111290674647992             3.099743863765833                        -0.67669591956701
-0.19306441725460022      -0.5075820760178517      0.10302523535840102               0.30197307778450466               0.0017027636522588421             -7.290640822251213E-4             -6.190816048565407E-4             -6.850591511467762E-4             0.5165063889007714                       -0.4667620359848845
0                         -0.29                    0                                 0                                 0.0013376231738007796             -0.0011587825437891501            4.885848208444077E-5              7.300839366008158E-8              -5.504532229908913E-5                    0.03683728347597929
-0.9347230035353993       0.16395800832610918      -0.19358056081700536              0.057956775778631564              -0.0013554426453927472            -0.003625624206459908             -5.772568817765548E-4             -0.003182889182939855             2.3997673710359098                       -0.43522791714470027
-0.8855092581793581       0.13474030222755876      2.7755575615628914E-17            0                                 -0.0015222735787927657            -0.0043163879419400135            -8.526439988348189E-4             -0.0024381483277309047            1.838263434993412                        -0.6428584628332765
0.9420505332460795        -0.097286590419165       0                                 0                                 -5.977099041296157E-4             3.2509884206923233E-4             -4.973107657960377E-4             2.786784417423658E-4              -0.21011206896206236                     -0.3749518379147302
0.9849765506752225        -0.11191327743880491     -0.015101234763164051             -0.02077978118442969              -4.923650141898946E-4             2.0752759413743662E-4             -4.18116287309332E-4              4.525210805560612E-4              -0.34118225970447447                     -0.31524246240230197
0.9773080999667357        -0.061428597720314886    -5.551115123125783E-17            0                                 -4.4006594832091594E-4            4.344497645060067E-4              -5.953785407382987E-4             6.001174260067241E-4              -0.45246382608608937                     -0.4488909017432612
1.011397458107299         -0.06226621122543538     -0.016999195638621956             -0.014451429777134428             -3.2024700285083937E-4            2.443020532704587E-4              -5.018426663651002E-4             6.780398293899759E-4              -0.5112141093551753                      -0.3783687043179676
0.9952188713872379        -0.0283242541776359      0                                 1.1102230246251565E-16            -2.308425500618111E-4             3.0870123241359747E-4             -6.958280267934105E-4             9.373146409524573E-4              -0.7066966402123873                      -0.5246256776708775
0.8024803962791429        -0.17303676043755278     0                                 -1.1102230246251565E-16           -7.507180166231941E-4             -2.6442201012384425E-4            -3.140273114595747E-4             -1.043529744324123E-4             0.07867784541658034                      -0.2367636610454554
0.8481070076883955        -0.22166789958723157     0.008898042021194763              -0.036766038949997304             -7.020730472111457E-4             -2.584830944495254E-4             -2.941397261175412E-4             1.1891453760310615E-4             -0.08965666439513904                     -0.22176924067785012
0.8855092581793581        -0.13474030222755876     2.7755575615628914E-17            0                                 -7.047058372153384E-4             7.001060029007676E-5              -4.0586474815894645E-4            4.7468170857561965E-5             -0.035789046064594765                    -0.30600530640716034
0.12818555298769796       -0.5114627793283406      0.21906509292960785               0.13951094823529808               7.937546524344746E-4              -0.0013272675077956983            -6.659655223763607E-4             -2.6363021454098377E-4            0.1987663253454226                       -0.5021105790926541
0.3013974083500545        -0.2765145973513389      0                                 0                                 2.6608737186708376E-4             -0.0013915979868778256            5.6164617994777185E-5             -1.312515184436038E-4             0.09895823990609547                      0.04234580908219746
0.3846089574884601        -0.4535251499695774      0.1814039197282481                0.003151943783948008              4.0115610059790714E-5             -0.0013014946447056962            -5.00606209663549E-4              1.1746273019032247E-5             -0.00885620613920246                     -0.37743646688287713
0.5231968396313792        -0.2471414415566071      0                                 0                                 -3.8754423649983206E-4            -0.0010943557262522202            -7.317719018153638E-5             -2.1494234904677762E-4            0.1620576797524073                       -0.055172587925144456
-0.8024803962791429       0.17303676043755278      0                                 1.1102230246251565E-16            -0.0019295696635778542            -0.0034021275090934193            -7.706952955886607E-4             -0.001346115155817502             1.014915393819667                        -0.5810725152725156
-0.8494617361744753       0.21972577964309678      -0.17432281719830447              0.0882111683368223                -0.0017931757995910324            -0.0030526799254534               -5.3549284535621E-4               -0.002001488322623148             1.5090397730102767                       -0.40373955354677954
1.022508829523536         -0.021248136378139413    -0.017382598211775624             -0.011976161292983067             -1.1968792675478181E-4            1.1582661459630192E-4             -5.56900839371481E-4              8.440761119614361E-4              -0.6363986289604303                      -0.4198802994428487
1                         0                        0                                 0                                 -1.1076990494698215E-6            2.3408113112285216E-6             -7.325068910818151E-4             0.0010731432963882936             -0.8091058529219328                      -0.5522800308911389
0.9348042977995307        -0.16405495037634737     -0.007342705981186359             -0.028545009512025654             -6.247019283011902E-4             3.89855252376734E-5               -3.489329722355505E-4             2.644645392601873E-4              -0.19939537182581057                     -0.2630810918387152
0.765611767367731         -0.26860708438866454     0.02866034963638125               -0.043829725437435574             -6.828897339894112E-4             -5.318020445615382E-4             -2.7146500328583995E-4            7.110044029299262E-5              -0.053606804030737365                    -0.20467343341869182
0.6853090223371564        -0.21119319317219185     0                                 0                                 -6.714837720778687E-4             -6.607721693179701E-4             -2.059260626200982E-4             -1.9512062928395826E-4            0.14711291931915338                      -0.15525977108168373
0.6696263041400459        -0.35117445414425996     0.07870670046479106               -0.0618140919569814               -5.647273345071478E-4             -8.309623619396413E-4             -3.221334681515684E-4             1.2542714910572053E-4             -0.09456690527564993                     -0.2428753693758043
-0.7698099097922773       0.26824035475742736      -0.17131110664340887              0.1282292041890326                -0.0020614225837030987            -0.002387862139557421             -4.7207678622252685E-4            -0.0014715414718517415            1.1094816709937263                       -0.35592645646366555
-0.6853090223371564       0.21119319317219185      0                                 0                                 -0.0022657051787222326            -0.0023431823320307385            -6.363672250177334E-4             -6.386456833413915E-4             0.48151254550434147                      -0.47979468175630813
1.0195257472241321        0.014852845743300654     -0.014935212263325504             -0.010190870343748881             8.749863786955443E-5              -8.906351455092575E-5             -5.843765264994438E-4             8.831357653756901E-4              -0.6658479991395458                      -0.44059583607537967
0.9952188713872381        0.028324254177635684     0                                 0                                 2.2993858311494983E-4             -3.0585662501513553E-4            -6.961613137359381E-4             9.372860454016836E-4              -0.7066750803446824                      -0.5248769623006275
-0.6448275731194895       0.35145512810972307      -0.16749778263034323              0.22316980648307813               -0.002254448110465935             -0.0013939924244809358            -3.904059527282836E-4             -0.001155775045757221             0.8714067891310954                       -0.2943500112530392
-0.5231968396313792       0.2471414415566071       0                                 0                                 -0.002424087670554478             -0.0011667857786744871            -4.3311579289073563E-4            -1.9499260545259283E-4            0.1470163946223865                       -0.3265514719238576
0.9773080999667362        0.06142859772031447      0                                 0                                 4.4131204330071384E-4             -4.3711212136707283E-4            -5.956036898802113E-4             5.986434646284561E-4              -0.4513525199053106                      -0.4490606549245139
1.0150138526614285        0.07102942818876662      -0.020355610788193368             -0.01793078925222702              3.3652701884549557E-4             -2.2391375185069052E-4            -4.657074283098425E-4             6.389251280610068E-4              -0.4817232353152641                      -0.3511242228907104
0.9420505332460799        0.09728659041916467      0                                 0                                 5.976834693157649E-4              -3.267459735380515E-4             -4.99545512256166E-4              2.787139553441755E-4              -0.21013884475535974                     -0.3766367447177375
0.9881077654165978        0.11514169949604748      -0.016670412112926747             -0.022935751050023767             4.898252514042269E-4              -1.9393221204079403E-4            -4.053555813114972E-4             4.5136157508628713E-4             -0.3403080403292553                      -0.3056214155719182
0.8855092581793589        0.13474030222755823      -2.7755575615628914E-17           0                                 6.997595533471938E-4              -7.126432782523204E-5             -4.089664949403352E-4             4.788714597230063E-5              -0.03610493604751186                     -0.3083438957489097
0.9431857103773448        0.16537707486370373      -0.009155158431069066             -0.0313349041683364               6.129879093156796E-4              -4.219837566023685E-5             -3.435220754021708E-4             2.859009950142434E-4              -0.2155575767008557                      -0.2590014984496696
-0.4425877038773052       0.4291366534777971       -0.061282117849514206             0.28960572791051914               -0.0021998966235262287            -2.6992097045855823E-4            -4.331115020083614E-4             -8.821639236255389E-4             0.6651152704808404                       -0.3265482367752481
-0.3013974083500545       0.2765145973513389       0                                 0                                 -0.0021907254690473345            9.102799428178498E-5              -1.660191834621982E-4             9.011137137196033E-6              -0.006794026318503343                    -0.125171627581021
0.8744584811323816        0.22245616953450345      0.0059952835412974415             -0.04305109373218885              6.882160758445341E-4              2.0795515328781832E-4             -2.963262622590394E-4             1.7629374769865747E-4             -0.13291822590383587                     -0.22341779888593435
0.802480396279144         0.17303676043755234      0                                 -1.1102230246251565E-16           7.454038805330207E-4              2.652513349367726E-4              -3.142336728600255E-4             -1.0399266460328274E-4            0.07840618664314795                      -0.23691924904333403
0.7757482562506813        0.2887909939606622       0.035873775647923635              -0.056249964657311136             6.785657119291055E-4              5.349421051130177E-4              -2.8065899855294837E-4            1.274416256701507E-4              -0.09608573764812067                     -0.2116053272369637
0.6853090223371576        0.21119319317219157      0                                 -1.1102230246251565E-16           6.75495948312464E-4               6.651093447427994E-4              -2.0530224893764996E-4            -1.9356335829965267E-4            0.14593880112615185                      -0.1547894412540639
-0.1721070039239475       0.5361086610084267       0.13055019821595826               0.32586640359828545               -0.0016206178671317154            8.337331510898681E-4              -6.7492008835898E-4               -7.396941817678725E-4             0.5576989520923539                       -0.508861953090234
0                         0.29                     0                                 0                                 -0.0013375022449089021            0.0011630986403529957             4.869760345152686E-5              -1.2779749806737526E-5            0.009635405078063227                     0.03671598761182134
0.6380695671532051        0.3660680840037932       0.09151234525767038               -0.059990029440397885             5.196294599075121E-4              9.0594398193762E-4                -3.3293017041437976E-4            1.1578578347521972E-4             -0.08729771262630592                     -0.2510156382685947
0.5231968396313796        0.24714144155660703      0                                 1.1102230246251565E-16            3.8708045551166613E-4             0.0010893953282529786             -7.665874594299005E-5             -2.1772662896120135E-4            0.1641569121499026                       -0.05779753759714704
0.17825619996544936       0.5259233993182056       0.24189336433423722               0.11959203915816696               -6.213363041788108E-4             0.0013628337733462958             -7.034502344532454E-4             -2.2218233407600438E-4            0.16751633031839377                      -0.5303725083602316
0.3013974083500545        0.27651459735133893      0                                 0                                 -2.631445465591668E-4             0.0013879269271457528             4.869698204790332E-5              -1.4479071792229434E-4            0.10916623876231009                      0.036715519099078886
0.4468857750246342        0.45499694831239357      0.18013974433271918               -0.02136960814353206              1.1919792063801167E-4             0.0012446205612058326             -5.02651046423124E-4              6.164761602488312E-5              -0.04647976380441284                     -0.3789781895922398
-2.884196118591103        -2.8725379698589824      0.7470900972252421                -0.6835762376602107               3.0440545678313865E-4             4.2362955800602595E-4             -0.002542729881389877             0.0010214169476471294             -0.7701063160869066                      -1.9171136197338163
-3.131781663630111        -2.748893571891069       0.8595355570030268                -0.19278572680419273              3.1675601238502027E-4             3.6852144586214323E-4             -0.002921287751539073             -2.3501170466928975E-4            0.17718914742610634                      -2.2025306646319387
-3.131781663630112        -3.131781663630112       0.7890364389008828                -0.07772835287216623              4.787581536899899E-4              1.2159924456866136E-4             -0.0029924812057784728            -2.5034816932458697E-5            0.01887522102132418                      -2.2562075973479074
-2.748893571891069        -3.1317816636301115      0.5341167980403771                -0.8532171386171991               4.2713477356812337E-4             3.293819777513794E-4              -0.00214771339988177              0.001690450613473729              -1.2745301489934244                      -1.6192874596445737
-2.849174893197198        -2.5505484803543763      0.834675552957373                 -0.7877572083897659               2.9571960920853944E-5             5.230192113935204E-4              -0.0022682966233609683            0.0010615652076390182             -0.8003764507962184                      -1.7102022444730027
-3.1317816636301115       -2.3561944901923453      0.9829892163030618                -0.24751860709067852              5.269881881863959E-5              4.649046891243839E-4              -0.002729307386010419             -3.858849461168226E-4             0.29094135844521485                      -2.057785374866719
-2.5550890585461135       -2.795256865533685       0.3692377718880936                -1.1631302018445797               8.247120283872449E-5              5.780553035553404E-4              -0.001110652356309772             0.0021102305011711678             -1.5910268975804982                      -0.8373861394616782
-2.3561944901923453       -3.131781663630112       -0.1135682020202204               -1.2110940194077184               3.142228358658739E-4              5.056767597217201E-4              -1.7194295239407155E-4            0.0024321752710918737             -1.8337599962609155                      -0.1296379054120122
-2.8368095797709705       -2.1666663810393447      0.9635549996552825                -0.7720174508252188               -2.7048303956473454E-4            4.3553881802007146E-4             -0.001968965178920471             0.0011101399064463626             -0.8369997733675983                      -1.4845186619770905
-3.1317816636301115       -1.9634954084936207      1.1102800794040553                -0.22753986717324484              -1.8676810010114837E-4            3.967037459202573E-4              -0.0024744465760906122            -4.123483335684573E-4             0.3108936628087795                       -1.865630819477382
-2.544690097177028        -2.3636176982182087      0.5268556391532583                -1.1297998122599109               -3.286290481281141E-4             4.8258553067385333E-4             -7.854837174967872E-4             0.0021158327492034                -1.5952507618935445                      -0.5922223763969471
-2.2654382990489754       -2.538711254775774       -0.020448219942257817             -1.1920019017991124               -3.493851080617875E-4             5.31294515790834E-4               6.295182312800569E-4              0.0023128767961917646             -1.7438138589545578                      0.4746308225229419
-2.1507858891347222       -2.825955521704872       -0.3395230341972933               -1.1676308885565705               -1.0385931421767469E-4            6.398248776307063E-4              0.0010710167895823137             0.002153057682255093              -1.6233168284739523                      0.8075025543607928
-1.9634954084936207       -3.1317816636301115      -0.7597495895868751               -0.9557954711397908               1.777093678948077E-4              6.272054945766889E-4              0.0017893607146415261             0.0016791510042979776             -1.2660107089982244                      1.349104292108612
-2.515283206948223        -1.9740987611300052      0.5737829089058782                -1.0135971917255924               -5.471977513071497E-4             1.7546839736620238E-4             -4.0786820486127365E-4            0.002341024914185058              -1.765036380768523                       -0.30751583025740864
-2.827683677554313        -1.7761243421236144      1.0485316841937873                -0.6797537135180757               -4.3762695174767865E-4            2.0523704755545026E-4             -0.001700022309979085             0.0012992230376638544             -0.9795606677716974                      -1.281746813991417
-3.1317816636301115       -1.5707963267948968      1.202802859616585                 -0.153126090762178                -3.1615706655126224E-4            2.3295673281311323E-4             -0.0022363631533950192            -3.1034033053721385E-4            0.23398382926163527                      -1.6861257231542623
-1.0410637049300997       -0.12568140328423877     -0.42267147357641294              0.0636649829016952                7.994897622043629E-4              0.0024290146659914735             -2.8844234935104E-4               -0.004582406808134576             3.4549460276267383                       -0.21747365321661175
-1.0079112253292706       -0.1863538210957321      -0.43876560092538003              0.10157017448685057               0.0011447672941807836             0.0026529361280763276             -2.3902902936547701E-4            -0.0036324598695430445            2.7387251551985545                       -0.18021804481167678
-1.0768629549734778       -0.18754253066412782     -0.6335962451659282               0.10777489468518009               9.5038324040398E-4                0.001910566075026535              3.677331692798499E-5              -0.0036908310891220473            2.7827346510063484                       0.027725566620899977
-1.0429770870553547       -0.2700981572203162      -0.668794040668208                0.17935460227811828               0.0012771229261153644             0.0019156274080512296             1.2389282341344627E-4             -0.0030372015321988616            2.2899248818644238                       0.09341008688794188