% Model:              111(6.3).mph
% Version:            COMSOL 6.3.0.290
% Date:               Mar 23 2026, 12:12
% Dimension:          2
% Nodes:              441
% Expressions:        8
% Description:        , , , , , , , 
% Length unit:        m
% X                       Y                        real(emw.Ez) (V/m) @ freq=0.09549 imag(emw.Ez) (V/m) @ freq=0.09549 real(emw.Hx) (A/m) @ freq=0.09549 imag(emw.Hx) (A/m) @ freq=0.09549 real(emw.Hy) (A/m) @ freq=0.09549 imag(emw.Hy) (A/m) @ freq=0.09549 real(d(emw.Ez,x)) (V/m^2) @ freq=0.09549 imag(d(emw.Ez,x)) (V/m^2) @ freq=0.09549
-2.88357286651049         -2.872417602271825       0.8065599815342512                -0.8510290074372466               1.9484320911988974E-4             7.506137896773662E-4              -0.0024701144765676515            6.855746941735834E-4              -0.5168950871126752                      -1.8623645948350025
-3.131781663630111        -2.748893571891069       0.8841280461186434                -0.36013830661924395              2.7496068170508505E-4             6.691780873918158E-4              -0.002909174971193079             -5.879058215729597E-4             0.4432567792227492                       -2.193398127061154
-3.131781663630112        -3.131781663630112       0.7267351032917444                -0.23312766594096535              6.039441641019018E-4              4.2412916568402453E-4             -0.003148483914838498             -3.119656727823462E-4             0.2352092703820931                       -2.373827215712903
-2.748893571891069        -3.1317816636301115      0.5590959450606657                -1.0312565765532984               3.816892134633649E-4              7.041152635178422E-4              -0.00214863909898375              0.001369023542251008              -1.032187373812207                       -1.6199853986467345
-2.8477442872384917       -2.551074181254569       0.9676022497495066                -0.9094236524060301               -2.119319447697845E-4             7.448698980727797E-4              -0.0020171702754693778            7.810791406232284E-4              -0.5889015068168687                      -1.5208633196660062
-3.1317816636301115       -2.3561944901923453      1.0838496976977816                -0.38512301444819774              -1.0580883489596726E-4            6.828155449574336E-4              -0.0025341492546619377            -7.186438062359732E-4             0.5418278358058466                       -1.910644180535268
-2.5534034041017577       -2.7941293266977074      0.5179002811607449                -1.2801426386235317               -2.3094289427495225E-4            8.295687308054035E-4              -8.607882141274543E-4             0.001856354060200001              -1.399614515841651                       -0.6489988657812379
-2.3561944901923453       -3.131781663630112       -9.040691269064351E-4             -1.3704719673412633               6.815702652379826E-5              8.743645413122648E-4              -4.38574844732032E-5              0.0021558645481474484             -1.6254330897687066                      -0.03306673722058261
-2.83412893231261         -2.1643936272183515      1.139138611748438                 -0.8148077286268496               -5.573318171872263E-4             4.994762191970345E-4              -0.0015656942994836936            9.822111731063743E-4              -0.740546776595747                       -1.1804690257696895
-3.1317816636301115       -1.9634954084936207      1.2594008455104573                -0.3127195917168043               -3.8403346102066147E-4            5.095490026754702E-4              -0.0021334529098033473            -6.502046230251073E-4             0.4902275100231918                       -1.6085356373792536
-2.535690808137684        -2.3735733776722063      0.7023680762746065                -1.1401650719805074               -6.960858536547227E-4             4.97523590663073E-4               -3.4987554072254495E-4            0.0020633466864254245             -1.5556784319601498                      -0.26379174966248725
-2.2642060982991055       -2.5388523832243384      0.18189827886164536               -1.166593133106296                -7.875723032574538E-4             4.922950993382762E-4              0.0010055671150412593             0.0022821339135478836             -1.7206349914477008                      0.758156195005777
-2.139816226318285        -2.8259476769938603      -0.1521246058843676               -1.1994295918586948               -5.797863610287193E-4             7.544452053400435E-4              0.001426575688977665              0.001999372175778631              -1.5074442854334515                      1.0755793224191443
-1.9634954084936207       -3.1317816636301115      -0.5782808431826802               -1.0679809945251748               -2.5278105227315633E-4            9.170307896161044E-4              0.001982582632978681              0.0014849227254455245             -1.1195705851570081                      1.4947856615637016
-2.8281054826434024       -1.770866254285809       1.2277823507946104                -0.6389986087577902               -6.719830283034046E-4             1.511422958523013E-4              -0.001249317407033171             0.0013451067657006923             -1.0141551091975805                      -0.9419338774139296
-3.1317816636301115       -1.5707963267948968      1.3727935494056118                -0.1837246460685065               -4.912409405616453E-4             2.6505321446943875E-4             -0.0018103327347869188            -4.21113876025013E-4              0.31750252085178665                      -1.3649163316604056
-2.5171709858833697       -1.9713582192863746      0.7457640680974446                -0.9117884542507716               -8.244513114090109E-4             1.0473888069047182E-5             1.46570237244462E-6               0.0025055675198264404             -1.8890947294788305                      0.0011050792304976669
-2.174912844902915        -2.178938614668057       0.07027454951180506               -0.8386697767720214               -9.561405873296053E-4             -1.2119590332183582E-4            0.0016532254078523991             0.002576012177339202              -1.9422071002987225                      1.2464638769067353
-1.9437173725544752       -2.514666119708187       -0.31488811662142463              -0.7192465927755362               -0.0010041069241958597            1.9024088892483692E-4             0.0024851676868412205             0.0017025509434875118             -1.2836532995264323                      1.873714095482866
-1.7602113781444833       -2.8287458372762786      -0.5752073805332428               -0.5692706900636443               -8.585709028923602E-4             5.816463029826749E-4              0.0028072451460422723             7.506341011738211E-4              -0.5659472008133194                      2.116547236416456
-1.5707963267948968       -3.131781663630112       -0.7769766393575142               -0.32253412258490805              -5.18530493144663E-4              8.761922309775806E-4              0.0028045295074430538             -2.560867764934714E-4             0.19307888369998935                      2.1144997567439434
-2.5242130007105614       -1.5770129581097048      0.7067218674210293                -0.6931108714411173               -6.6040048363683E-4               -3.531513760114045E-4             -7.4622673611241185E-6            0.002964060665147305              -2.2347796800834803                      -0.005626242290544203
-2.836533511062516        -1.3770011872144572      1.2398061499870343                -0.44779467599532724              -5.773958594078762E-4             -1.1583800970137365E-4            -0.0011556222039692241            0.0017096487077566981             -1.289004721496067                       -0.8712915527170438
-3.1317816636301115       -1.1780972450961724      1.420030251347157                 -0.04608398005919623              -4.456209745581726E-4             6.199176288888822E-5              -0.0016153969475538672            -1.1953002488200152E-4            0.09012071645736526                      -1.2179427756357515
-2.2050900631698935       -1.7623886302987222      0.018840131378251856              -0.6165690635420145               -6.949534062992875E-4             -6.027365623940186E-4             0.0014616946880410117             0.0031197194634715888             -2.352140003916135                       1.1020576014957089
-1.9166988854634401       -1.9178923912778019      -0.49855948473112016              -0.2562725929689977               -7.020640536703404E-4             -7.840137846614858E-4             0.002544525039567734              0.0022608182615571635             -1.704563867635454                       1.9184670950744476
-1.7739330898428098       -2.2151910987405197      -0.5462019799249904               -0.1424995015235679               -9.717556644577779E-4             -5.225557291049322E-4             0.002959172133459932              0.001337274999667029              -1.0082502801240736                      2.2310939285032765
-1.5697321235199142       -2.527477683912222       -0.5759465828448223               0.0842711637082375                -0.0011180937805196397            -1.1051245890620401E-4            0.003072209212768301              3.544862842732423E-5              -0.02672680604270858                     2.316319231380731
-1.3744560153853231       -2.835666720056948       -0.5263703734140557               0.26556658176733006               -0.0010366083750785382            4.0137171325278363E-4             0.002712231778783819              -0.0011221471904444807            0.8460527710364741                       2.044911070199545
-1.1780972450961724       -3.1317816636301115      -0.42723372396515436              0.4227753551896375                -6.94020396990224E-4              8.151922781845101E-4              0.0019819380686718286             -0.002011208169882724             1.516368137576033                        1.494299686619802
-2.2279075462276645       -1.3848534322067263      -0.11894033967856675              -0.4996465920938659               -3.071270020277191E-4             -7.609160244916301E-4             0.0010782641350265611             0.003545837955869381              -2.673415799420498                       0.8129667543765993
-2.538975366687153        -1.1933883260477045      0.6186990498242705                -0.5432845567052783               -3.911095086116815E-4             -4.888163015709007E-4             -2.355339679379518E-4             0.0033402679854941954             -2.518424507227429                       -0.17758291242362603
-2.840684080826513        -0.9889335781322883      1.1928167858108774                -0.30536723504492946              -3.914368902532585E-4             -2.3248611937810743E-4            -0.0011971947327442008            0.002060805923500372              -1.5537628013444944                      -0.9026355274367335
-3.1317816636301115       -0.785398163397449       1.4222725871563235                0.06494485628992669               -3.1316126826190515E-4            -4.1343721382733897E-5            -0.0015381284330570964            1.606253184258942E-4              -0.12110487546559297                     -1.1596854976596151
-2.841694225160595        -0.600226544773927       1.1295492713778301                -0.21994825861085254              -2.060866797317135E-4             -2.0573351038659891E-4            -0.0013030217072170667            0.002326568510957132              -1.7541368480562742                      -0.9824247081837884
-3.1317816636301115       -0.39269908169872414     1.4086243961907554                0.13321755011623995               -1.558422278234662E-4             -4.823751936829673E-5             -0.001527553956016966             3.5110206119115306E-4             -0.26471649558711763                     -1.1517127774333855
-1.869347133793685        -1.544240944661602       -0.8428994979146471               -0.05572776453332584              -1.001994244000862E-4             -0.0010552740856230758            0.0022945116383252377             0.002435499267149875              -1.836266152404899                       1.729967286209192
-1.9888825115487136       -1.2051142543963462      -0.8364594322085808               -0.2456345911859393               1.8685440651308643E-4             -8.667079927327671E-4             0.001575949855451278              0.003092919739310751              -2.331934115524338                       1.1882012926405423
-1.5650741843974465       -1.8752229029319738      -0.9183361818001332               0.49940131813736294               -3.581442281662875E-4             -0.0011768077539643603            0.002848203373638631              5.934226573416112E-4              -0.4474162462063737                      2.1474280533446852
-1.5175366689053964       -1.4928317184281312      -1.2814877327350056               0.5743986276806056                4.913931304756517E-4              -0.001183558716671845             0.002324644560762487              5.108418058685932E-4              -0.3851536849147272                      1.7526862688387024
-1.2899175087573629       -1.6919735133199965      -1.0616755496657313               1.0268226912110783                3.4823157696980685E-4             -0.0013416525642872465            0.0021115908036541077             -8.502463535286718E-4             0.6410507370086235                       1.5920525096347269
-1.3827224868402137       -2.227861617117523       -0.638390420482917                0.7295784254368818                -8.746910711161325E-4             -8.666309928447676E-4             0.0027721407019758114             -6.842051481265824E-4             0.5158625057917986                       2.090079931208161
-1.183203400362882        -2.539964551263851       -0.3045033992330835               0.8659282948809323                -0.001158600996697746             -3.4186137351595856E-4            0.002137808688423523              -0.001800534019427074             1.3575285037948737                       1.611819715085817
-0.9846957159720735       -2.841595010315111       0.028891455910407537              0.8543181727170673                -0.0011294106367210704            2.8552854787032946E-4             0.001142979768675516              -0.00249279929815611              1.8794680161408843                       0.861759677127127
-0.785398163397449        -3.1317816636301115      0.304329564302716                 0.732274417945143                 -7.686920481315436E-4             7.901656797307009E-4              5.374240110229282E-6              -0.0026853913490514454            2.024674491483085                        0.004051955729331582
-2.242047003028623        -1.0264968210987955      -0.2734586780075816               -0.47152789024903413              7.858596986125715E-6              -6.810213475390909E-4             6.332075098175197E-4              0.0038113062166459113             -2.873567935935899                       0.477412386613932
-2.547082177606556        -0.8005406464378121      0.5042263472213581                -0.46458954904613864              -1.524728192342338E-4             -4.3061088091813233E-4            -5.318527244042949E-4             0.003623455117029146              -2.731935942623096                       -0.40099505225095955
-2.834965682247586        -0.20466894916549597     1.0742880639006371                -0.18910005438209795              -6.0744656473799854E-5            -8.213181825383522E-5             -0.0013804997969909512            0.002505875322101539              -1.8893267997188097                      -1.0408399972884583
-3.1317816636301115       0                        1.4014162491806252                0.15580867955406644               -2.792102538365335E-7             1.3388330992909402E-7             -0.0015309788970537675            4.175800946087524E-4              -0.31483819518673706                     -1.1542950419344216
-2.530872269333756        -0.39802890045680034     0.35844393494644944               -0.45049106040571624              -1.7310195919418494E-5            -2.3964247593066728E-4            -7.382206963666603E-4             0.0038155471639536643             -2.8767654355617034                      -0.5565880047786743
-1.695157114118979        -1.1946824767265092      -1.3690805765749774               0.1537636302681802                6.572898818590391E-4              -8.809792022943137E-4             0.0019352921117539877             0.0015876808643113577             -1.1970459902324802                      1.459130556006593
-1.9099537605746164       -0.8752975972880974      -1.190130504098774                -0.25180277658778766              5.268005643180686E-4              -5.8259385267135E-4               0.001231468919933955              0.0027341948496780477             -2.061470321204016                       0.9284768531503669
-1.2053003601116168       -1.9580058279539148      -0.7223914542094154               1.172214439192536                 -2.4116151318564835E-4            -0.0013361318004795897            0.0020605135060529876             -0.001378770609010053             1.03953626075965                         1.553542330631057
-1.353245406554571        -1.1695948757125605      -1.505266878189784                0.6053275829046805                0.0012438925073076977             -6.54176151880485E-4              0.001518326195065463              -5.965170595441123E-4             0.4497492980380951                       1.1447554256795667
-0.9916042600309889       -1.6954071255645817      -0.7086996478876794               1.3823804878778299                6.3443192609557E-4                -0.0014147713387637993            9.563199071371646E-4              -0.0021258499283059026            1.6028033024245987                       0.7210258282696942
-1.1700720703413656       -1.4383999917213812      -1.1907718038470767               1.050126328039003                 0.0011031048833219312             -0.0010803069287191242            0.0013926889510994028             -0.0014395358157072878            1.0853507242690548                       1.0500301175310278
-0.9983621780262971       -2.2509393357193788      -0.1673335601695566               1.3198091129091578                -8.08986089630709E-4              -0.001048420425048462             0.0012335284227620038             -0.0022831860570378735            1.7214282643113805                       0.9300296334714028
-0.7933953009748681       -2.5529568080046285      0.3907972950923253                1.1967224480999976                -0.0011832062659224724            -4.2922606950546865E-4            9.19194001585621E-5               -0.002669617062235696             2.0127813288166947                       0.06930344243463993
-0.5938977498030129       -2.8448871639442457      0.7993285318230212                0.8648085517851841                -0.0011553336206919244            2.831149606950114E-4              -0.0010562242135893137            -0.002477678445900825             1.8680675162243359                       -0.7963495612274336
-0.39269908169872414      -3.1317816636301115      1.0051832256531748                0.42437389336320414               -7.377914652942129E-4             8.280525927559191E-4              -0.0019841003430252245            -0.0017986664974620633            1.356120469138704                        -1.4959299524387688
-2.1878015374194812       -0.5878902075033818      -0.6058853346178156               -0.4967157508676671               2.2020737128648177E-4             -4.0019249973218186E-4            2.973431507258522E-4              0.003792097859458717              -2.8590856256261015                      0.2241844909139572
-1.9178691821072964       -0.5859006501911441      -1.2670403558813303               -0.3696469051149432               4.885605906299771E-4              -2.821068972153248E-4             8.843448264403117E-4              0.0026051434992551137             -1.964170917381534                       0.6667595813925569
-2.828996522149185        0.18588607703775462      1.061987495313316                 -0.19461458431342063              5.454284957320504E-5              7.563824673870352E-5              -0.0013743833198494924            0.002546555700654545              -1.919998129910307                       -1.0362284254032563
-3.1317816636301115       0.39269908169872436      1.4086654974627673                0.13318877585223873               1.555551369449918E-4              4.862226956219892E-5              -0.0015265151989254844            3.5158053866175717E-4             -0.2650772478960217                      -1.150929597362922
-2.240371950393382        -0.17793732959692365     -0.5306356046458073               -0.5476349343995964               7.723986656837956E-5              -1.1302366384540038E-4            -9.576797547099934E-5             0.003867036100557865              -2.915585973422205                       -0.07220510973404327
-2.530365576659896        -0.017488536547632036    0.3216683444805782                -0.4494400448705123               1.1565536992582412E-6             -1.0934708360533932E-5            -8.341964364543206E-4             0.0038523833297016605             -2.9045383876047475                      -0.6289497604778337
-1.533504069610859        -0.8817421569192828      -1.6247570120180674               0.1532667307190199                0.0010735656462135003             -2.872601300000055E-4             0.001369902704777117              2.835463034473313E-4              -0.21378223622673032                     1.0328502261525594
-1.692967406422765        -0.589564937644582       -1.582136787975099                -0.19437027094276638              7.305225849397373E-4              -1.0089603997152966E-4            0.0010728443917293342             0.0010749694759267612             -0.8104827170909896                      0.8088804911181146
-0.8118651336048259       -1.9713552911162913      -0.08718588265900401              1.5187284974704343                -1.0433187638911476E-4            -0.0014672806644389729            1.9049256610942673E-4             -0.0025673151207524256            1.9356498777812483                       0.14362355027141438
-0.6393761576952918       -1.6800476764620635      -0.07214488674105424              1.412063369977763                 8.084570054552902E-4              -0.0014674341071025168            -6.538873299338837E-4             -0.002572413132110982             1.9394935684070507                       -0.49300411937677513
-1.1837957611077499       -0.8730366558599104      -1.391093482707921                0.4354623035923199                0.0015201535282833186             2.7037076112736684E-4             6.380261012015825E-4              -0.0019261910672680332            1.4522687432495538                       0.4810454060856147
-1.006510207323278        -1.1506562402641296      -1.1152458954469322               0.8508369865978559                0.0017854215119677364             -2.7870754799495985E-4            3.8495124666946726E-4             -0.0022440315704674845            1.6919073938378137                       0.2902373875120992
-0.8266361188604802       -1.418148459162662       -0.6719435267197432               1.2208383020923312                0.0015363252873999294             -9.702806509615854E-4             3.103010865400422E-5              -0.0024683733268219582            1.8610518396281306                       0.02339542409038545
-0.6108766898817375       -2.2640914687045517      0.5920514505149884                1.3595078615818317                -8.351534318382059E-4             -0.0010828422920171178            -9.130812236022296E-4             -0.0025868244571030097            1.9503591139857752                       -0.6884256414740467
-0.4042003965819561       -2.5521034004791527      1.114427125581596                 0.9055679232761665                -0.00121559129193979              -3.711975327784764E-4             -0.0019911563146072964            -0.002018901607691388             1.5221686728643125                       -1.5012498644433627
-0.20002410955098188      -2.844634190819318       1.3438027942237867                0.281672824294878                 -0.0011092216510466175            4.0601580497830783E-4             -0.0026896739031978555            -9.87618276705057E-4              0.7446235100420386                       -2.0279033609518478
0                         -3.1317816636301115      1.2548849611812167                -0.32615914588411565              -5.907010839284149E-4             9.142166564336729E-4              -0.00283947634159217              2.2170731084862364E-4             -0.16715818236663268                     -2.1408482305650116
-2.824929785385972        0.5810696188907305       1.096879391668718                 -0.233726340193831                1.941419479030369E-4              2.103052441771216E-4              -0.0012795302775018371            0.0024416429061829806             -1.8408982032378634                      -0.9647131375668301
-3.1317816636301115       0.7853981633974485       1.4223139973550492                0.0648929643044115                3.1378243592127886E-4             4.168285816611619E-5              -0.0015362401725286085            1.6145774517463328E-4             -0.12173249095441008                     -1.158261826980608
-1.9130374983203267       -0.32166554319409246     -1.3150562227817393               -0.44720066044795737              3.223220647295992E-4              -1.1365457613285824E-4            6.35348546348952E-4               0.0024271284624961783             -1.8299549104097554                      0.4790266399897223
-1.9939207075796923       -0.018356287196855156    -1.169448015400436                -0.5182438217431072               1.6031832726661355E-5             -6.021344913143237E-6             4.229168907970508E-4              0.0028393624483798708             -2.1407623597731154                      0.3188619197408914
-2.5061372794050087       0.38011174319586843      0.2843495924310235                -0.46360575925245623              5.616551238022095E-6              2.336781683318303E-4              -6.857283933414112E-4             0.003878320083385028              -2.92409363179407                        -0.5170109699558122
-2.2177544215590124       0.16805032104220877      -0.5964996856141563               -0.5490356612342965               -7.740677367299321E-5             1.046704505740752E-4              -4.3564433208710635E-5            0.0038142832057341592             -2.875812463114601                       -0.032845788635146624
-1.3568060084408171       -0.5885569077106929      -1.5288007400307215               0.0674980652765022                0.0010287307747006902             4.6914390822815137E-4             8.073496095689571E-4              -0.0014699782690453017            1.1083030804511111                       0.6087083585714569
-1.5353935351133534       -0.30777423381234814     -1.5915394260527114               -0.20961906162202723              5.045648403184557E-4              2.6162566294803173E-4             8.437202239463472E-4              -6.107122578052002E-4             0.4604518929618933                       0.6361303040526921
-1.0103915628277982       -0.5815521041126558      -0.8815981042772393               0.17682540733319552               0.001116905679014071              0.0013325446310405535             -9.224586538377832E-5             -0.003226639682085768             2.4327534457254223                       -0.06954958377045865
-0.425314353590348        -1.97736124934718        0.6590786056853633                1.2866648644807084                -2.117738098513529E-4             -0.001481038283607702             -0.001696374770301572             -0.0022694816028132245            1.7110956701819824                       -1.2789967192820024
-0.29457763613514565      -1.669531851663533       0.5153126101393602                1.0647853867859158                6.012552101882304E-4              -0.0015502664083499728            -0.00185727336596328              -0.00189686427174151              1.4301575471140386                       -1.400307634529712
-0.48683993684228827      -1.4047412986422023      -0.05245480496302757              1.0566208063937557                0.0016597925919556262             -0.0010463393673865425            -0.0010873107416646043            -0.0022439534275134508            1.6918484772684368                       -0.8197875232380903
-0.8390406210265859       -0.8647973592980271      -0.7244563223929562               0.43846826592136984               0.0018719236280962809             9.219888589215002E-4              -6.388507356481543E-4             -0.002930554811615167             2.2095176463073414                       -0.4816671464994886
-0.6652426439058189       -1.1395740868198911      -0.47730551165382984              0.7801645931755967                0.002269322631827609              -1.6130164251981495E-5            -7.682729696408161E-4             -0.0024379304984271173            1.8380992006686718                       -0.5792461812603834
-0.6666666666666666       -0.5773502691896258      -5.551115123125783E-17            -1.1102230246251565E-16           8.112436296070818E-4              0.0019442918939310335             -0.0013362660303791567            -0.003325429351303742             2.507236788109889                        -1.0074895588308566
-0.21086848016108686      -2.248790964896287       1.2119896978464961                0.811373145241484                 -9.495171960664446E-4             -9.725469190968499E-4             -0.0026153372903091284            -0.001400983580073267             1.056283926200528                        -1.9718566160510635