% Model:              111(6.3).mph
% Version:            COMSOL 6.3.0.290
% Date:               Mar 23 2026, 12:14
% Dimension:          2
% Nodes:              444
% Expressions:        8
% Description:        , , , , , , , 
% Length unit:        m
% X                       Y                        real(emw.Ez) (V/m) @ freq=0.09549 imag(emw.Ez) (V/m) @ freq=0.09549 real(emw.Hx) (A/m) @ freq=0.09549 imag(emw.Hx) (A/m) @ freq=0.09549 real(emw.Hy) (A/m) @ freq=0.09549 imag(emw.Hy) (A/m) @ freq=0.09549 real(d(emw.Ez,x)) (V/m^2) @ freq=0.09549 imag(d(emw.Ez,x)) (V/m^2) @ freq=0.09549
-2.8852552896345305       -2.8711748000856003      0.7055525834159999                -0.7794888820728014               4.272593181518649E-4              5.716448949935759E-4              -0.0026102621763726746            7.791931009376571E-4              -0.5874795105619653                      -1.9680301891385998
-3.131781663630111        -2.748893571891069       0.7854927716781206                -0.2858156094345293               4.894737497795384E-4              4.834362305898416E-4              -0.0030547117054618043            -4.6850687724569236E-4            0.3532348921056935                       -2.3031268314273623
-3.131781663630112        -3.131781663630112       0.6945555334483575                -0.11919038954443201              6.656380098255999E-4              1.5096874815285048E-4             -0.003187061456851207             -1.5020443400440896E-4            0.1132479577488038                       -2.402913093748832
-2.748893571891069        -3.1317816636301115      0.4861118583177825                -0.9349347442031976               5.469037215216208E-4              4.6098334655289086E-4             -0.0022330232723672327            0.0014917264391499175             -1.124700305109932                       -1.6836075903972119
-2.854884060659853        -2.543335104517874       0.8473977019796756                -0.8984777300936976               8.852298086012365E-5              7.219281215830312E-4              -0.002225961933344569             7.548935344572232E-4              -0.5691586381035022                      -1.6782836315634455
-3.1317816636301115       -2.3561944901923453      0.9537003443052449                -0.38469600466180137              1.7855089124627289E-4             6.573738157268606E-4              -0.0027523827605406385            -7.09278560957639E-4              0.534766826531268                        -2.0751832570075317
-2.5539356049837147       -2.794329649792967       0.39295378567174305               -1.2623744301761466               8.043362624396266E-5              7.663394443785354E-4              -0.001016052413587512             0.0018855099502989817             -1.4215968563227663                      -0.7660616783200362
-2.3561944901923453       -3.131781663630112       -0.10285343280939538              -1.3009110957638426               3.1628966734139794E-4             6.862545350092604E-4              -1.4278481310312164E-4            0.0022323265360872997             -1.6830822799340759                      -0.10765386913277486
-2.8321047773010073       -2.1694843495351774      1.0284870583145576                -0.9032357483477279               -2.9441339486149706E-4            6.679432193793599E-4              -0.0017425803395078189            8.620365344700094E-4              -0.6499400479130949                      -1.3138338156960465
-3.1317816636301115       -1.9634954084936207      1.145157729060673                 -0.39146203022207277              -1.3334217865964572E-4            6.430280681693258E-4              -0.002351686725566218             -7.87786196258653E-4              0.5939583505662158                       -1.7730749474914194
-2.150674403830026        -2.8276187479289043      -0.26453765492264386              -1.2270844053975016               -2.3591432044071188E-4            7.795864769551413E-4              0.001246051641295053              0.0020112801970977707             -1.5164224431300626                      0.9394716245331859
-1.9634954084936207       -3.1317816636301115      -0.696962015149331                -1.0260407421134419               4.859118661136775E-5              7.932765126421295E-4              0.001892217721838144              0.0015237294667245372             -1.1488292700011944                      1.4266542398340503
-2.543567853556733        -2.361594618871205       0.6120159603622982                -1.2126637260480833               -4.199052199308989E-4             6.661884741148466E-4              -5.326094274305613E-4             0.0019484351522149814             -1.4690398672774823                      -0.4015655751713714
-2.2683329918442463       -2.543128521113749       0.07542923899462228               -1.2430638597630792               -4.8440504103008236E-4            6.600442588946289E-4              8.514187625658306E-4              0.0022104373620902796             -1.66657874414699                        0.6419346851422757
-2.8289064197994094       -1.7750642637076222      1.1887903771460981                -0.7815945499718445               -5.478425362513264E-4             4.4195140995878236E-4             -0.0013372805176315831            0.0010827311808685074             -0.8163347229863399                      -1.0082544404421154
-3.1317816636301115       -1.5707963267948968      1.312460309785838                 -0.3210632007454096               -3.4460327110650136E-4            4.965935076834734E-4              -0.0019490215228312104            -6.986592787586181E-4             0.5267603250603324                       -1.4694819665750962
-2.5175156931951688       -1.9824558386689521      0.7132102331321749                -1.057427391662494                -7.102056052169444E-4             3.4273273193506036E-4             -6.407957491503643E-5             0.0022867929754612983             -1.7241477322680152                      -0.04831336065835673
-1.765309957320877        -2.828474785411991       -0.6953834566085694               -0.6253704520933393               -5.239484330888049E-4             6.85561337921978E-4               0.0027092394027818643             7.485655180069712E-4              -0.5643875742907598                      2.042654941921548
-1.5707963267948968       -3.131781663630112       -0.9034065045366437               -0.3036536276368125               -1.8878330687135898E-4            8.09925586004223E-4               0.0027369872469243488             -2.419961338705973E-4             0.1824551194217531                       2.063575673735472
-1.9347091381225927       -2.5291871679312017      -0.419492579021449                -0.8130215293894084               -7.490625736117754E-4             4.5297701328921545E-4             0.002424528119893087              0.0015788786676635754             -1.1904094964387253                      1.8279943591703784
-2.1595927802246733       -2.1993451761975176      0.003703369223192643              -0.9681510493940023               -8.361150140778717E-4             2.2731918131753612E-4             0.0016672067170463785             0.0023863238227099168             -1.7991898923655216                      1.2570052082819874
-2.831620557341118        -1.3810960777672459      1.2809734661842074                -0.607844770498136                -6.127042340795935E-4             1.8284070763525256E-4             -0.0010623004464047948            0.0014115798353740777             -1.0642730663384719                      -0.8009307905481297
-3.1317816636301115       -1.1780972450961724      1.4299844890967508                -0.20970311360916702              -4.124461049212753E-4             3.0736402171085855E-4             -0.0016187102192197298            -4.946856298868433E-4             0.3729725935435515                       -1.2204408460296983
-2.212507464582428        -1.7975755620528482      0.11054113825955925               -0.7804494409689279               -8.392516062578542E-4             -2.0402156813625387E-4            0.001516583340406428              0.0028940081901345904             -2.1819629987183604                      1.1434413850382437
-2.519191166863155        -1.5870083600773197      0.7625947241419454                -0.839927463810998                -7.625619111987528E-4             -1.815503599282585E-5             1.2484853638345875E-4             0.0027209232785200092             -2.0514641030805114                      0.09413065511061351
-1.370494330584186        -2.826739687742783       -0.6356985812152947               0.2139099785625128                -7.28054977100803E-4              5.435393105681421E-4              0.0026539079085916594             -0.0011630315188789386            0.8768778710398325                       2.000937273879561
-1.1780972450961724       -3.1317816636301115      -0.555884134995819                0.42612031451859567               -3.5330027199493983E-4            7.889136760225226E-4              0.0019436335368628994             -0.0020104482423830717            1.515795183535473                        1.4654196470348322
-1.5562818692444726       -2.5103053923358214      -0.6434565193505223               0.00833356998759012               -9.276191946988932E-4             1.554530642900702E-4              0.003025442345059219              -8.843213067196002E-5             0.06667418484916936                      2.2810589390100913
-1.7578149048476057       -2.201544861652259       -0.5676167920371418               -0.2393464941328651               -9.305747294758647E-4             -1.8604880095468793E-4            0.002972343966326055              0.0011638348545642537             -0.8774835530648116                      2.241024948061948
-1.910952630891555        -1.9308263332959437      -0.4411529368029317               -0.3866980214893846               -8.361318997772762E-4             -4.084678993018924E-4             0.0026181189823598445             0.0020879130286257756             -1.574200442325479                       1.973953897305893
-1.8836461664415425       -1.6312553925204731      -0.6187069816784753               -0.17556281543593988              -5.736334387871905E-4             -7.625091956299365E-4             0.0025113381125503116             0.0023312512479289216             -1.7576674388956528                      1.8934455187568577
-2.834474203825059        -0.9883500592087635      1.3079502915778072                -0.4395608840478622               -5.238537968518874E-4             -3.8067550629393968E-6            -9.186478658983857E-4             0.0017752256664451832             -1.3384470478566233                      -0.692622660528353
-3.1317816636301115       -0.785398163397449       1.4963037850857646                -0.09785567510733019              -3.4938548246265855E-4            1.494035964383291E-4              -0.0013934882512886147            -2.6012289271665613E-4            0.19612194912307176                      -1.0506327569581289
-2.529022029113449        -1.193149789999282       0.74165885802279                  -0.6380855182820291               -6.268280778832267E-4             -2.5511460114005367E-4            9.136015774861004E-5              0.0031688025049279914             -2.3891465959111104                      0.06888179668740634
-2.1452733725903994       -1.3700493676923182      -0.18591227269309216              -0.4756839741756319               -5.642856904930519E-4             -6.406066526884003E-4             0.0016058698118379259             0.0033762293931038643             -2.5455379276571337                      1.2107597076379428
-0.9769076937709459       -2.8277314010481462      -0.06271305958626094              0.7958780775110502                -8.361276344868745E-4             4.441024713021365E-4              0.0010853640257005332             -0.0025213742794478445            1.9010123753034387                       0.8183197795678763
-0.785398163397449        -3.1317816636301115      0.17649424743342398               0.7289203138231047                -4.2830323706873785E-4            7.81591367240193E-4               -1.7611056152989274E-6            -0.002691677626025625             2.0294140854497202                       -0.0013278011107628143
-1.1641768082023172       -2.510335625513383       -0.3360589063798603               0.7912496509740707                -9.91230051453643E-4              -7.873562620079102E-5             0.0020410743200483575             -0.0018996329805713661            1.4322450395549946                       1.5388859848985545
-1.344762867145716        -2.1626449663587204      -0.6230673889789516               0.7060543415879055                -8.360186801863437E-4             -6.238821063743519E-4             0.002662602749553939              -8.937584805647042E-4             0.6738570889435639                       2.0074928259074047
-1.8058190456190393       -1.3545554776998394      -0.9312801966918605               0.04359351869668221               -1.7125057964638058E-4            -9.550349138056824E-4             0.002306040151493956              0.0022244530103668753             -1.677145965776435                       1.738659310388713
-1.5782404285854494       -1.8579451361146397      -0.8226904673510693               0.3663758079552422                -5.932302212076518E-4             -8.615341427058397E-4             0.0029078523945066993             6.006288150192281E-4              -0.45284939234227284                     2.1924009587039643
-1.3142930837908555       -1.8875536802013215      -0.772434601678277                0.8956279237256428                -4.31398945787731E-4              -0.0010113152000341373            0.002420315911100334              -8.634127247734884E-4             0.6509776387297423                       1.8248185272014186
-1.5786997594176944       -1.5038426446830586      -1.082044909877757                0.4507424945607182                -5.2468743614312263E-5            -0.0010834990372739829            0.0025181786841817068             8.666691309308067E-4              -0.6534328348719953                      1.8986030280689141
-2.832248053968542        -0.5958487914177867      1.2908726270655204                -0.31519412082095055              -3.4263031672969224E-4            -7.47649246332655E-5              -8.624763028441794E-4             0.0021093133435026276             -1.5903353984674107                      -0.6502716151573468
-3.1317816636301115       -0.39269908169872414     1.525312086120318                 -0.017889621942936                -1.9629884470318383E-4            5.253873902673654E-5              -0.0012704804266157298            -7.915482042846401E-5             0.05967947496965183                      -0.9578899226758983
-2.832322716058715        -0.2000703405347315      1.2728969216722203                -0.24789549401085872              -1.1835260213232219E-4            -3.864987465276957E-5             -8.582030025316945E-4             0.002290518436155657              -1.7269565762153054                      -0.6470497226982864
-3.1317816636301115       0                        1.532793154126649                 0.010838362982528825              1.0577752761797802E-7             2.2186885796804113E-7             -0.0012323915951319637            -1.1864190935831245E-5            0.008945111392552626                     -0.9291725122534589
-2.530419614467562        -0.7945403190053849      0.6568590976590047                -0.48587436923988075              -4.1123301279056136E-4            -3.2136784634930864E-4            -2.0681460294788017E-5            0.0035815811006645435             -2.700364658676232                       -0.015592969389831512
-2.2295409289421735       -0.9748485483979314      -0.14258200490103656              -0.4297932584013684               -3.3837479905875364E-4            -6.187587394070365E-4             0.0010079590664318508             0.0038704327254779716             -2.9181468887373243                      0.7599596278525794
-1.9111733363257764       -1.074093328079627       -0.918817845019985                -0.09919089534550041              -4.6307940680820045E-5            -8.720081770895657E-4             0.001797027910863856              0.002921437288158262              -2.202643409084817                       1.3548850423214371
-0.5861509567242983       -2.8312057893188842      0.7097138641987116                0.7937955458408404                -8.672511673474542E-4             4.4364886050931473E-4             -0.0010840226261652809            -0.0024660437925232894            1.8592954666982717                       -0.8173084195577713
-0.39269908169872414      -3.1317816636301115      0.8802277116696781                0.42340056816672506               -4.065112332690277E-4             8.138300010627389E-4              -0.0019605539305327857            -0.0018117722533267336            1.3660016693593637                       -1.4781769270720122
-0.775925217359948        -2.5221612775554747      0.37007895157464626               1.0937474940330487                -0.0010213693612651593            -1.6116628208546552E-4            -3.37601396192482E-6              -0.0026800332051775274            2.020634671653081                        -0.002545375501419693
-0.9585677293521722       -2.209248167831036       -0.09248115592142503              1.2376399140452679                -8.00639356641204E-4              -7.531852836571165E-4             0.001026334273746178              -0.0023937781880696224            1.8048101768724043                       0.7738137774677455
-1.0628422006613287       -1.9168193398327527      -0.47232606196009536              1.262946100061847                 -3.2005381951898847E-4            -0.0011299839705019516            0.0014652229863813772             -0.0019746825591374253            1.488829331216219                        1.1047177931473289
-1.59973788105619         -1.1846569793037365      -1.315843387921898                0.3761386862334155                3.4983692259245866E-4             -0.0010026092253332733            0.0020208427702930105             0.0010845279759710655             -0.8176894325007861                      1.52363222952793
-1.285516647859507        -1.6340105816046686      -0.963738030901289                0.9769868918031869                1.0387260009520692E-4             -0.001194933975651767             0.0020908604500920586             -8.719188561000449E-4             0.6573909114634046                       1.576422676734829
-1.3265152353104452       -1.3021755097253471      -1.2663944946157473               0.817173256611026                 6.836739466132483E-4              -0.001044990045321176             0.0017124585414155973             -6.345080345614961E-4             0.4783929287146585                       1.2911232203645817
-0.19633714773857075      -2.8331656643440524      1.2422325553197116                0.2163700364846791                -8.22292585759029E-4              5.479405056961524E-4              -0.002654687417856501             -9.671193462561655E-4             0.7291681606393463                       -2.0015249917646862
0                         -3.1317816636301115      1.135574860942368                 -0.3162473525100428               -2.792442672493863E-4             8.732828047420173E-4              -0.0027886145963597897            1.9635331951648027E-4             -0.14804231699170092                     -2.102500569170822
-2.83193751218928         0.19454675841261654      1.2721379744777899                -0.24766717973537467              1.1499806958584956E-4             3.856281512177568E-5              -8.573284153723003E-4             0.0022940090428212197             -1.7295883498962865                      -0.6463903199960211
-3.1317816636301115       0.39269908169872436      1.5253757818322695                -0.017945224539398646             1.9666160074784713E-4             -5.201891879791892E-5             -0.0012705530694453486            -7.948363218992476E-5             0.05992738549716743                      -0.9579446923779644
-2.5260712986823264       -0.4012620115782283      0.5644108901717635                -0.3990887493218096               -1.9593899818369184E-4            -2.158610544494762E-4             -1.368576623512675E-4             0.0038700477937360397             -2.917856666055581                       -0.10318504154878316
-2.5277970488400308       -0.005153704675351236    0.5367198104670335                -0.3702780607433707               -2.6539129873353568E-6            -2.7096774653172545E-6            -1.9790522571839128E-4            0.0039610191967329785             -2.9864453576693353                      -0.14921239035970124
-2.2264875099957147       -0.5785913132131916      -0.31311848775637646              -0.3620249851566442               -1.2933841136739986E-4            -4.671856319905247E-4             6.877906510661321E-4              0.004146892152225585              -3.1265859117734434                      0.518565827355491
-1.9242364515338322       -0.7329558503455743      -1.0875013689432704               -0.1269787748181005               1.1680062055140402E-4             -6.912152377599E-4                0.0013242132013202362             0.003119415939408999              -2.3519111592722077                      0.9984022220617028
-1.6277048702149537       -0.8702707191134689      -1.500603201096052                0.23411608591024438               5.114968874975769E-4              -7.883394346309632E-4             0.0015004549683456467             0.0012314339020307139             -0.9284504510933771                      1.1312812566784995
-0.38917087087899294      -2.528168494997042       1.0811641767429683                0.7787978977253031                -0.0010538419917298487            -9.507662467211993E-5             -0.0020286116230813435            -0.0019520110960953893            1.4717359817042281                       -1.5294896246052552
-0.5805756915857221       -2.2236900561609376      0.653067304032734                 1.223266496754344                 -8.340905006701265E-4             -7.776505891712013E-4             -0.0010582986520745298            -0.0025329651467144087            1.9097514119049634                       -0.7979136024189165
-0.7332646003075057       -1.9320902925919974      0.13494920528159193               1.4189034440050168                -2.645512611983855E-4             -0.00121195002914026              -2.1293886721332033E-4            -0.00261778533756466              1.973702342869976                        -0.16054713695432182
-0.9030533750485741       -1.6494461331168695      -0.4521229048619107               1.3769465482752514                4.341253343714507E-4              -0.0012762483017826722            5.516201408501224E-4              -0.002354060778193959             1.7748648854081122                       0.4158988702194382
-1.348515039449233        -1.0030041965210779      -1.4742153278422003               0.6037790843282388                9.697957608602387E-4              -7.306933048689237E-4             0.0012015648314611153             -6.891206774733465E-4             0.5195686124954063                       0.9059304019065291
-1.0218664687184686       -1.3657981187726915      -0.8932593983561271               1.1547482608935804                0.0010566778522572281             -0.0010130380332448556            7.760535353002433E-4              -0.0020406812564246787            1.538589631112849                        0.5851124073601718
-1.1247430020933766       -1.1217068866378737      -1.1913001969883328               0.8729828050994846                0.001329699398237179              -6.341313598387684E-4             7.243636248415513E-4              -0.0018555509017643673            1.399008967455632                        0.5461403434895834
-0.0019634647548909456    -2.5306709429538263      1.394497005852065                 0.010144436049416726              -0.001054082511471885             1.2358766652209713E-4             -0.002997923502538129             -8.25154194475563E-5              0.0622132282389705                       -2.260310864988302
0.1942141551323272        -2.8352217585572226      1.2102091583955776                -0.6210276257679689               -6.679304679882949E-4             7.241447437609712E-4              -0.002764161080212184             0.0011973286995022295             -0.9027365328554717                      -2.084063625003032
0.39269908169872436       -3.1317816636301115      0.7625353935989216                -1.0592189597363566               -4.521250978607261E-5             9.09168713252057E-4               -0.0019807941441706374            0.0022302561315616577             -1.681521280181991                       -1.4934372146532626
-2.52957658656349         0.3857503046176524       0.5722728527517127                -0.3964069392232373               1.8899706206981955E-4             2.0785890796475408E-4             -1.492937409129873E-4             0.0038652491813753634             -2.914238709944786                       -0.11256133266064945
-2.8381288275011056       0.5870324299732705       1.2997666142238344                -0.30907454036199583              3.379114692067208E-4              7.163039325028455E-5              -8.74474251148275E-4              0.002074708540327886              -1.5642448019160213                      -0.6593175740973781
-3.1317816636301115       0.7853981633974485       1.496407039020192                 -0.09800746137671743              3.493561374552071E-4              -1.4929523298112232E-4            -0.0013933700538246194            -2.602837480398722E-4             0.19624322741267752                      -1.0505436409377045
-2.221195075468349        -0.19545849483455535     -0.42179055127488896              -0.33903698060812243              -2.8170745223527442E-5            -1.751540782258538E-4             4.987410787930654E-4              0.004268781992430511              -3.2184858318059693                      0.37603023501351496
-2.2233572602934455       0.18560507259298123      -0.41606452835954316              -0.3395863137984114               2.6919662949765672E-5             1.6662006155939154E-4             4.920751727286853E-4              0.004273400159698744              -3.221967739747877                       0.37100441634617615
-1.9211607195257683       -0.369361637424666       -1.238967478962205                -0.15941944891632087              1.2171548220645624E-4             -3.790364171006591E-4             9.659262283327896E-4              0.0031491905567730253             -2.3743599946316825                      0.7282685988582885
-1.6293513441986063       -0.5305695558445608      -1.6591268359627713               0.10800542414471502               4.4532178187538024E-4             -4.917593170041171E-4             0.001027647057913204              0.0011134018182432325             -0.8394591205353485                      0.7748035626686026
-1.3420799193878281       -0.6868675747370677      -1.5993756664085303               0.38133319246146596               9.055833264813652E-4              -4.081571913011577E-4             6.197180465954393E-4              -0.0011142049760220027            0.8400646684261189                       0.46724188684703866
-0.19263045660043374      -2.2273235274228957      1.23875761282821                  0.6548728303427335                -9.62209954809066E-4              -6.369015001420655E-4             -0.002643624354498435             -0.0012733569286880212            0.9600586867826735                       -1.993183897574952
-0.37055854938603155      -1.9287892631902346      0.8018349128527421                1.118089814829341                 -3.808364657618256E-4             -0.001215967151520438             -0.0019012502132948427            -0.0020845436165495613            1.571660044374016                        -1.433464366430078
-0.5379065375653789       -1.6407170517213012      0.23152004941858337               1.2978523955155925                4.904490951244724E-4              -0.0013527760807450755            -0.001067641427858635             -0.002450694792338732             1.8477229526382934                       -0.8049576706201512
-0.6906027310304148       -1.3609862195746223      -0.3022111297818004               1.1896752402751138                0.001378088521978896              -9.570669453379882E-4             -4.504737463888704E-4             -0.002495426478889144             1.881448802225031                        -0.3396386540526141
-1.070269372428845        -0.8522405978220619      -1.1729969761526136               0.5989445997668416                0.0015014960649033645             -6.84265922260768E-5              2.247815066788766E-6              -0.002538711510797476             1.9140839337855713                       0.00169475999425787
-0.8564732149506784       -1.08511410537433        -0.7397322686819993               0.88291232179971                  0.0018696742924505197             -2.8419397441903376E-4            -1.989152707193816E-4             -0.0025333604275981376            1.9100494374134394                       -0.14997392269631107
0.18813141839040376       -2.227254386556054       1.3278778930018114                -0.17620266194460998              -0.0010923429159674812            -3.100600132975364E-4             -0.0029238412198405775            6.657121478400358E-4              -0.50191954512635                        -2.204455874578225
0.3857219960254197        -2.5356154362754952      1.1103267916854607                -0.8188054526686276               -9.364884481077687E-4             4.533601362522154E-4              -0.0024202068043153477            0.0019454430109798635             -1.4667839160040124                      -1.8247362651786083