% Model:              111(6.3).mph
% Version:            COMSOL 6.3.0.290
% Date:               Mar 23 2026, 12:17
% Dimension:          2
% Nodes:              434
% Expressions:        8
% Description:        , , , , , , , 
% Length unit:        m
% X                       Y                        real(emw.Ez) (V/m) @ freq=0.09549 imag(emw.Ez) (V/m) @ freq=0.09549 real(emw.Hx) (A/m) @ freq=0.09549 imag(emw.Hx) (A/m) @ freq=0.09549 real(emw.Hy) (A/m) @ freq=0.09549 imag(emw.Hy) (A/m) @ freq=0.09549 real(d(emw.Ez,x)) (V/m^2) @ freq=0.09549 imag(d(emw.Ez,x)) (V/m^2) @ freq=0.09549
-2.8841543864157417       -2.8723484139881093      0.8951820613993722                -0.6929670027081039               -1.7463713477252307E-5            4.3167856324997906E-4             -0.002313041686772841             9.363003686710836E-4              -0.7059319206804497                      -1.7439381796624165
-3.131781663630111        -2.748893571891069       0.9913068812353536                -0.21628824313725076              4.134242759961481E-5              3.902281785976713E-4              -0.002705040088523918             -3.435405089254698E-4             0.2590153965671357                       -2.0394888319008286
-3.131781663630112        -3.131781663630112       0.8889957112523001                -0.17409914091614284              2.510925604911111E-4              3.1945798988524754E-4             -0.0028740574830134445            -2.2254188742121467E-4            0.16778741873410338                      -2.166920987128689
-2.748893571891069        -3.1317816636301115      0.6813282685028578                -0.9054586329691674               9.08251732038429E-5               4.4533766719930993E-4             -0.001958955743746479             0.0015590193584309314             -1.1754363950931759                      -1.4769719600492341
-2.8489743773360248       -2.5500068284064437      0.9641799214460897                -0.7201274956019271               -2.2939753811550008E-4            3.605329031326255E-4              -0.002007799549359397             0.001105221084593166              -0.8332911842497271                      -1.5137981780700696
-3.1317816636301115       -2.3561944901923453      1.098269355148378                 -0.2004710016279747               -1.4713375123952485E-4            3.34735764995533E-4               -0.00248003768034122              -3.6989907400652555E-4            0.2788886691799194                       -1.8698462818379897
-2.5550898793377264       -2.7948578857629838      0.5201836262780355                -1.0943290933222938               -2.651539100261137E-4             4.157696282284351E-4              -8.620120879247323E-4             0.002139268096839639              -1.6129200489324305                      -0.6499216162246764
-2.3561944901923453       -3.131781663630112       0.06077987429493632               -1.2054954410810625               -1.0640871947686711E-4            5.017696950073235E-4              3.3851660979189376E-5             0.0023785533466233553             -1.7933312733881803                      0.025522758350699153
-2.1514057772419366       -2.8275092456215463      -0.20175890682272116              -1.0400304995169483               -4.5230308469793333E-4            3.3756511288337453E-4             0.001273006259404477              0.0022449728985949277             -1.692617116481563                       0.9597942965836102
-1.9634954084936207       -3.1317816636301115      -0.5779336595170643               -0.8941817322018097               -2.905352273147555E-4             4.950130601196207E-4              0.001965966105016428              0.0016803425308126701             -1.2669090709226702                      1.4822574837567415
-2.8358764985846103       -2.162706052406825       1.0303834238627745                -0.6519484689723426               -3.611356831261002E-4             1.8056299944901137E-4             -0.001752157790504984             0.0012957149823266195             -0.9769157385108208                      -1.321054819343891
-3.1317816636301115       -1.9634954084936207      1.1785633983682349                -0.14263931234817467              -2.439609665206596E-4             2.1300284909663852E-4             -0.002263642255047167             -2.9106847946954676E-4            0.21945364718066998                      -1.7066930424335127
-2.5444609977062322       -2.364916646322768       0.5941253424252322                -0.9817786799973088               -4.5860840642560134E-4            1.525427548897117E-4              -5.85591318539084E-4              0.002316453249492414              -1.7465103574631884                      -0.4415117392475503
-2.2698155488819967       -2.5373165623331912      0.06188285645819456               -1.0260989628860855               -5.256939026621057E-4             1.4079780786668524E-4             7.886448648150027E-4              0.0025027216818337373             -1.8869490848253037                      0.5946057512973213
-2.829330219038566        -1.7700128385879403      1.0487840663839103                -0.5547432910728642               -3.5513440253191064E-4            4.699531491380701E-6              -0.0015960638150924282            0.0015492225376501103             -1.1680499956622077                      -1.2033663899074798
-3.1317816636301115       -1.5707963267948968      1.2241992539800617                -0.07120956391586049              -2.416648440481426E-4             1.0219676218662979E-4             -0.0020990310493214583            -1.474907625574562E-4             0.11120196122809108                      -1.5825829720846074
-1.7623292168948386       -2.8207616427023945      -0.6906637439842855               -0.43316402453604047              -6.066146333566159E-4             2.0457834710464813E-4             0.002660501094808409              8.9822700780884E-4                -0.6772261744695505                      2.0059082647764246
-1.5707963267948968       -3.131781663630112       -0.8251411902489035               -0.16200009454342454              -4.325109272961751E-4             4.625266590961528E-4              0.002732124242127793              -1.2043555434489157E-4            0.09080344838224745                      2.059909168379735
-1.9484427820635026       -2.508432556929995       -0.48288390570438294              -0.6374580469432097               -6.177185907320916E-4             -6.755986783890058E-5             0.002240419189174666              0.0018289261743108702             -1.3789350193747216                      1.6891838071026202
-2.516433352403711        -1.9718111923627992      0.5450353125882864                -0.8584588519539061               -4.421237061972327E-4             -1.2115156820618198E-4            -3.497667119485221E-4             0.0026431329173829655             -1.9928133742275032                      -0.26370969724849513
-2.172358342734037        -2.1782081575903876      -0.1401245034281214               -0.8049515318602102               -5.160409105728376E-4             -2.4118750216662699E-4            0.0013435258804855217             0.002638012973645022              -1.988953147490829                       1.0129631868469517
-2.8346851620662274       -1.3763645739392403      1.0432051259822044                -0.45790823266329106              -2.660961953872987E-4             -7.314589151290151E-5             -0.0015637028792951635            0.0017609665285264486             -1.327696245064025                       -1.1789675769551746
-3.1317816636301115       -1.1780972450961724      1.246275630252756                 -0.010367690708714978             -1.7421824794684455E-4            5.356243825662146E-5              -0.0019896818227607615            6.017322743650517E-7              -4.5368135524803953E-4                   -1.500138158311356
-2.5248012493598964       -1.5799787785669868      0.5051059095392078                -0.7481392624656041               -3.023716225798636E-4             -2.5555719497583735E-4            -4.247562116852981E-4             0.0029126036242699584             -2.1959831902875457                      -0.320248691946515
-2.8367645304544653       -0.989017923061651       1.0276849521431861                -0.3939841490305418               -1.6936961678684233E-4            -4.218477163962681E-5             -0.0015610208292883851            0.0019440676355107957             -1.4657469395389555                      -1.1769454216981676
-3.1317816636301115       -0.785398163397449       1.2642251758572771                0.026337992629960328              -7.811737752305988E-5             7.327838273181128E-5              -0.0019072200366847046            9.798351951097206E-5              -0.07387553870301819                     -1.4379653674258477
-1.3725439293270718       -2.813567254405176       -0.6651448929174957               0.37696133618216227               -7.078453976084626E-4             8.914925633702112E-5              0.002567985863999985              -0.0010780553020122586            0.8128093028836587                       1.9361555905683796
-1.1780972450961724       -3.1317816636301115      -0.5058445685370205               0.5591780715188222                -5.186397357580997E-4             4.485268352013864E-4              0.0018907528001202174             -0.0019384297081288936            1.461496174465551                        1.4255497491849116
-1.563277549427987        -2.493795864464264       -0.7684377298278856               0.14493605299533055               -6.586428202108801E-4             -2.901720457065868E-4             0.002871979630756562              1.6052835181845657E-5             -0.012103176663671627                    2.1653543720939514
-1.7760062641349101       -2.19047220498053        -0.7551292887475776               -0.1817323920047784               -4.6440520368294294E-4            -5.063850398639162E-4             0.0026889192515687633             0.0012908372999041783             -0.9732381668295983                      2.0273343847004273
-2.210086860470794        -1.7656362841487738      -0.16857548082287102              -0.7163258609406183               -2.8792258008548347E-4            -4.449208719915952E-4             0.0010692373076266262             0.0029979862779456272             -2.260358195060434                       0.8061608982461234
-1.9359228688926184       -1.9100840027957564      -0.6595128927633042               -0.4037234943192659               -2.630735999971348E-4             -5.794529881486216E-4             0.0021909486625569046             0.002177336206488929              -1.6416218359450099                      1.6518850672528047
-2.5349452817057028       -1.1944278829328745      0.4558175520331899                -0.6782633416920723               -1.7344608459747123E-4            -2.3580053343961603E-4            -5.839317054331523E-4             0.003132929012051566              -2.362099459569902                       -0.4402604593093402
-2.2265451220070043       -1.3990558706773235      -0.2529571079196575               -0.6802233969346655               -7.854519222712422E-5             -4.448613436857255E-4             7.735426523194866E-4              0.003245850128381808              -2.447237331137259                       0.5832193049920448
-2.5366237372606815       -0.8101930795350136      0.40992724664423                  -0.6376469901990661               -1.2372793604490515E-4            -1.0582307799651858E-4            -6.933450551027774E-4             0.0033084191893525843             -2.494411826485331                       -0.5227536192661034
-2.836584762419913        -0.5974083577689713      1.0302811729647763                -0.35749558039781043              -8.92475905102762E-5              7.087236121003204E-5              -0.001522043059030632             0.0020623303509740188             -1.5549121568829707                      -1.1475577880470664
-3.1317816636301115       -0.39269908169872414     1.293573683730744                 0.032445475371170214              3.617790892428328E-5              1.2953927654362082E-4             -0.0018204107235751193            1.0451640317868469E-4             -0.07880106396119568                     -1.3725147201903045
-0.9818712439284459       -2.8085954492388883      -0.1098049465929608               0.9351467608255092                -7.73404635731261E-4              4.847063182082078E-5              0.0010156458761343763             -0.002510446835259512             1.8927735323828205                       0.765755165821779
-0.785398163397449        -3.1317816636301115      0.21142958379231422               0.842793509228828                 -5.419070258913865E-4             4.8540439772685177E-4             -8.022360394583535E-5             -0.002659516959297602             2.0051662671284474                       -0.06048529372873276
-1.1787023215053478       -2.4659650605782892      -0.4943232871184801               0.8959842592608801                -6.654468212960603E-4             -4.646989820112474E-4             0.0019894402841431377             -0.0018720564899355554            1.4114535012286833                       1.4999560481403431
-1.3863462798748183       -2.114370918021025       -0.8716667352635674               0.6530230380912022                -2.71925563437299E-4              -7.79488750960811E-4              0.0026090234955351154             -7.627527914324201E-4             0.5750841942148349                       1.96709627479655
-1.6470279041061422       -1.852847626028204       -1.0197673463921115               0.14604283939605475               -1.9754113516544717E-5            -7.606568100127806E-4             0.0026860130256641554             8.050571117427856E-4              -0.6069799096166818                      2.0251432100481277
-1.8844602274275002       -1.554679702899391       -0.9070699298507031               -0.3012462700038152               1.1707065150775035E-4             -6.364991730379136E-4             0.0020649103484697688             0.00215651684186132               -1.6259248923671983                      1.556857368749234
-2.2362813251484295       -1.0247547079568582      -0.33522900852518395              -0.6782099384977104               4.3768125390718996E-6             -3.1781649585717033E-4            4.6628896750386346E-4             0.0034184012385308662             -2.577333762452303                       0.35156267949493974
-1.9834584208530344       -1.2085346703109032      -0.8677740100229132               -0.47923302154875963              2.1365349007029544E-4             -4.5424939075398315E-4            0.0014435937269772078             0.0026519685382690853             -1.9994750685205385                      1.0884102222598453
-2.8389251212869495       -0.2011516852113276      1.0757779556384757                -0.3422399014777305               6.883546856128203E-6              2.1803660533448033E-4             -0.0014065720731825026            0.0020588626135680976             -1.5522976256819934                      -1.0604974198680692
-3.1317816636301115       0                        1.337221040593211                 0.001372841093632152              1.7854118957081824E-4             1.6805762648069652E-4             -0.0017277803632575312            -4.4615074983504805E-6            0.003363792926741002                     -1.302675243073439
-2.8353233876478843       0.19074377480736307      1.1501342775941235                -0.36903502723847526              1.6639568940566882E-4             3.285560718747648E-4              -0.0012117681754581196            0.0019533417332789293             -1.4727392273443412                      -0.9136233031016784
-3.1317816636301115       0.39269908169872436      1.3809914706139133                -0.0751108408849755               3.4713192896001274E-4             1.2710433618381398E-4             -0.0016728091135476675            -2.319999680919397E-4             0.17491842207153882                      -1.261229184534589
-2.239587456813824        -0.6394712386043028      -0.389424231742554                -0.670219883289525                -9.330619245700264E-5             -1.2414936097520363E-4            2.5963991921877476E-4             0.0035398764417723006             -2.668921063289305                       0.1957578069947492
-2.5305614001742747       -0.4182852135828201      0.3919792634282831                -0.6040609467160998               -1.388584844008869E-4             9.517844209616601E-5              -6.584510996721513E-4             0.0034469246228655925             -2.5988392196340615                      -0.4964450138212057
-0.5896969627097248       -2.804770486714008       0.6734576695220081                0.9170910158188547                -8.103772850048633E-4             1.1721663011965005E-4             -0.0011616962924692637            -0.0025179069670481845            1.8983981645396801                       -0.8758711653122004
-0.39269908169872414      -3.1317816636301115      0.9086427111616036                0.5127186846133244                -4.884648215885421E-4             5.795389279851154E-4              -0.0020509509457159784            -0.0017982239868363412            1.3557868343497093                       -1.546332553927766
-0.7856420865104551       -2.458124104156694       0.22697705875964372               1.2083124738907085                -7.230642637948925E-4             -5.020919637093789E-4             -1.2801485118921522E-5            -0.002775372493086376             2.092516568618822                        -0.009651792608379393
-0.9824425864964571       -2.1069355569215507      -0.35758901474997173              1.2504540758057654                -2.1681956435618034E-4            -9.146048151654049E-4             0.0011194784067021623             -0.0024549433684993007            1.8509262041049612                       0.8440406179965587
-1.1768194478397132       -1.888779743424122       -0.8175403120891136               1.0251188560717082                1.7375910923143033E-4             -9.298350016716396E-4             0.0019367577368834686             -0.0017093281614399107            1.28876304277346                         1.460235576999077
-1.380044397491617        -1.8008905539162317      -1.0616981653461939               0.6699584486856629                2.3794482378059243E-4             -8.51123774786033E-4              0.002458042871875594              -6.767003300112764E-4             0.5102041819848616                       1.853263102011653
-1.5246211360819646       -1.5411297357594376      -1.2383984647331994               0.32774018867880134               5.092319891378715E-4              -6.91230265586882E-4              0.0024059988460324705             1.963203116947428E-4              -0.14801743045338875                     1.8140240497238445
-1.6789298945949915       -1.202622693262487       -1.303096702974363                -0.07439522934940669              5.880514933719219E-4              -4.189814906610087E-4             0.001964370831120546              0.0010446610943557176             -0.7876314455000895                      1.48105471293339
-1.8910755350872455       -0.8615603767584558      -1.1308582713952602               -0.4472606443700329               2.494540294277774E-4              -2.765993093678109E-4             0.0012721613867628025             0.0021953027274121306             -1.655167852851169                       0.9591572974040473
-2.8336446994060798       0.5825134090950901       1.2442752364381742                -0.4509882755720627               4.033514432386402E-4              3.2140849878842877E-4             -0.0010347078302014986            0.0016803619297927808             -1.266923696954814                       -0.7801270942079924
-3.1317816636301115       0.7853981633974485       1.3946781812950422                -0.198352870512175                4.954836477544322E-4              -3.96804150091394E-5              -0.0017278533852622719            -5.450872756110917E-4             0.41097335885572794                      -1.302730298657932
-2.531795321927169        -0.014588020276928912    0.4590156084255335                -0.5643158493780643               -1.1176414315616988E-4            3.38714462431259E-4               -4.6320528071014345E-4            0.00348932672762573               -2.630808660484226                       -0.3492377066401738
-2.53134795397095         0.38498948841553904      0.587802223903832                 -0.5544726575645331               7.054438585359383E-5              5.376533427043479E-4              -1.2840237642191874E-4            0.0033856416741663716             -2.552634399976023                       -0.09681010415077775
-1.9602442617550768       -0.4977779623777918      -1.0642938538462783               -0.5244179693376718               -1.188896525077711E-4             -1.442400450563435E-4             9.287697272675685E-4              0.002603361580042886              -1.9628274236758003                      0.7002541271776186
-2.209762549003746        -0.23004224205496865     -0.4719841901809256               -0.6064498734365422               -2.946431334517863E-4             1.1737669777062784E-4             3.8207329748152577E-4             0.0036562004308068577             -2.7566245607437883                      0.288067532339717
-0.19670920734441136      -2.8031252278542604      1.2286868787259857                0.3115284341220606                -7.902681562266966E-4             3.009129288812842E-4              -0.0027568532054102284            -0.0010266977653070068            0.7740878351358539                       -2.0785537883441414
0                         -3.1317816636301115      1.1599549018782116                -0.25310604359727157              -3.3783172791359574E-4            7.023150693267732E-4              -0.002878285372982569             2.1179777664204368E-4             -0.15968680165423538                     -2.1701086420588753
-0.39251883172692664      -2.4561649212416885      0.985986677526074                 0.8889480039550984                -8.356556658725054E-4             -3.8153806298754086E-4            -0.002064740601960271             -0.002104445845874553             1.5866655057017256                       -1.556729386871315
-0.5885046716969681       -2.105982034644902       0.44726963177498597               1.2758459521543914                -3.4651278763363186E-4            -9.43529095536301E-4              -9.573385855240775E-4             -0.0027099644909740995            2.0432016285590144                       -0.7217938698237626
-0.783482352511555        -1.8960127978146284      -0.11591239437711845              1.3498571258683296                1.5659974512703006E-4             -0.0010419922650824244            1.4940166430653766E-4             -0.002749479695572438             2.0729944655711137                       0.1126427024550494
-0.9772259730284439       -1.8177914235423267      -0.554559791841643                1.2415079021993698                3.550297909983031E-4              -9.737897734058631E-4             0.0011042114983179203             -0.0023932683487150872            1.8044257789945135                       0.8325299977734384
-1.1630599527691619       -1.5891606733088977      -0.9929086896887493               0.9415233359769185                7.61366685645812E-4               -7.617212407441532E-4             0.001752391091814854              -0.0016833630584520425            1.2691864243759823                       1.3212307189240728
-1.3352374071074222       -1.2247766136213967      -1.2976428076605442               0.44814012952737153               0.0010697952854089978             -2.2305389907088593E-4            0.0017964325706966166             -9.649691812087242E-4             0.7275470247384019                       1.3544361803517315
-1.5120705674834714       -0.8829751323302611      -1.4011383955488428               -0.014000883396785055             7.477906092502769E-4              2.193585555678465E-6              0.0014729942781044588             -3.679371179398009E-4             0.27740943509989946                      1.1105770270810182
-1.6663648092475303       -0.5478388955628892      -1.423103436273655                -0.2744065464733789               8.913994983073216E-5              -2.119547732444538E-4             0.0011842638220362041             5.885782495698336E-4              -0.4437637622414854                      0.892886153263999
0.1970422429102904        -2.804131885412313       1.2100678550148574                -0.5619571724016169               -6.564532589823727E-4             5.57012764641297E-4               -0.0028664256898521517            0.0011720650562968464             -0.8836887862475381                      -2.1611669293659714
0.39269908169872436       -3.1317816636301115      0.7807612420880913                -1.0198245547430846               -8.167580423374776E-5             7.907922334262539E-4              -0.0020541430077967333            0.0022583157431118397             -1.7026770717825879                      -1.54873923728601
0.5913028748679063        -2.809770009791965       0.5826856168718845                -1.2258586994443246               -3.6462281957138466E-4            7.887369978989418E-4              -0.0013961157278531266            0.002865545767761319              -2.160503504345097                       -1.0526137660870276
0.7853981633974485        -3.1317816636301115      -0.05936475639785878              -1.3392509331720597               2.497009582655564E-4              7.663331997817384E-4              2.4755481952941414E-6             0.0031797814148397385             -2.397424241867801                       0.001866461394991637
-2.8302631838941266       0.9775791294613388       1.3098083050822635                -0.6069345368632925               6.489241294519557E-4              1.286665693586744E-4              -9.789984338407019E-4             0.001285963880167524              -0.9695638090379193                      -0.7381245034915714
-3.1317816636301115       1.1780972450961722       1.3418122188343098                -0.34981758297993426              5.349242256420211E-4              -3.266584891671836E-4             -0.001952269209078874             -8.630800283310118E-4             0.6507267993127138                       -1.4719305882645592
-2.8217816376646674       1.377980152965429        1.2883819779711436                -0.8257556619137086               7.671673176746545E-4              -2.4966137085795256E-4            -0.0011230394516809883            8.801941824652261E-4              -0.6636301667608488                      -0.8467254992650561
-3.1317816636301115       1.5707963267948957       1.198701649046329                 -0.4848875871203512               3.796808500807156E-4              -6.509983228512593E-4             -0.0023494934535090786            -0.0010726000105229943            0.8086962377522694                       -1.77142131068033
-2.526247907287478        0.777127749957346        0.7402006641400245                -0.6202718637676182               4.061407622350175E-4              5.785005419167655E-4              2.181536800157168E-4              0.0030999628195121816             -2.3372443079588012                      0.16447889105884037
-2.22490458401584         0.18825777601312305      -0.3424685462377078               -0.5081028144543963               -3.452087862734177E-4             4.611383878592693E-4              6.784805639517001E-4              0.0038229886101314166             -2.8823759795374113                      0.511546405065055
-2.2296957271651676       0.5868280924916164       -0.146333507652208                -0.4400052109237533               -9.80639626907519E-5              7.697318673319519E-4              0.001160968580703584              0.003801285023507401              -2.8660123689869947                      0.8753225006083968
-1.8222410584568254       -0.23266751849373635     -1.325700327209713                -0.36548027712190917              -4.286938171840467E-4             -1.4252962542390417E-4            0.0010865464046091165             0.0019295184670395484             -1.45477746565336                        0.8192112445740184
-1.9514866989564714       0.03078024241020477      -1.0889462573120885               -0.3710270418738432               -5.94200047332782E-4              1.619666120522806E-4              0.0011149880780639161             0.0029114033047711206             -2.195078198815153                       0.8406550951172047
-1.493828690775981        -0.23324483716742667     -1.494803875306008                -0.09154263933617363              -4.8406815127572566E-4            -5.518539984677337E-4             9.239599300501644E-4              -6.521064627358127E-4             0.49166141884639364                      0.6966277381454486
0.0010732530767041486     -2.458606352957997       1.3469048853083174                0.09246043816721285               -9.290669862659487E-4             -9.140716516783221E-5             -0.003071254971793346             -2.1204497449638202E-4            0.15987317865668052                      -2.3155997729817157
-0.19563331517670518      -2.10638132112227        1.0978337021480369                0.7299519950781103                -6.265442673596746E-4             -8.1000786424735E-4               -0.00256622301067385              -0.0014976452835464779            1.1291628700440914                       -1.9348264717556185
-0.39200966889320654      -1.8941266498150846      0.661586955742571                 1.1087628112930428                -1.022558769385696E-4             -0.0010864448281192106            -0.0017082760248918736            -0.002295535282613579             1.73073907184844                         -1.287969775143727