% Model:              111(6.3).mph
% Version:            COMSOL 6.3.0.290
% Date:               Mar 23 2026, 12:16
% Dimension:          2
% Nodes:              442
% Expressions:        8
% Description:        , , , , , , , 
% Length unit:        m
% X                       Y                        real(emw.Ez) (V/m) @ freq=0.09549 imag(emw.Ez) (V/m) @ freq=0.09549 real(emw.Hx) (A/m) @ freq=0.09549 imag(emw.Hx) (A/m) @ freq=0.09549 real(emw.Hy) (A/m) @ freq=0.09549 imag(emw.Hy) (A/m) @ freq=0.09549 real(d(emw.Ez,x)) (V/m^2) @ freq=0.09549 imag(d(emw.Ez,x)) (V/m^2) @ freq=0.09549
-2.8839406782419963       -2.8722421236698628      0.9319698299978929                -0.7879397208700902               -7.074292441652507E-5             6.850664322452828E-4              -0.0022356570764964453            8.356587980794363E-4              -0.6300523209224187                      -1.6855933702493224
-3.131781663630112        -3.131781663630112       0.8565723824771916                -0.26844440546553305              3.678690006732078E-4              5.419563485604519E-4              -0.0028837806968906653            -3.5173501788345567E-4            0.2651937188676541                       -2.17425188998551
-2.748893571891069        -3.1317816636301115      0.6805925789198357                -0.9966492831631169               1.2426899071777287E-4             6.804380053374659E-4              -0.001927120154581599             0.0014673722473868805             -1.1063382474378813                      -1.4529692368237217
-3.131781663630111        -2.748893571891069       1.0299321603113833                -0.3215634204145237               -3.7020095000395357E-6            6.605798107279713E-4              -0.00261659060191574              -4.803681787003232E-4             0.36217782494841133                      -1.9728015613904766
-2.552598544207345        -2.794892046009566       0.5832601747530691                -1.1634397005370596               -4.184727610519984E-4             6.23219935103274E-4               -7.581814501182303E-4             0.002106480899747198              -1.5881998525172072                      -0.5716375911139602
-2.3561944901923453       -3.131781663630112       0.07993075909639244               -1.285744097143493                -1.3402890384955237E-4            7.235517408928696E-4              7.595022894837693E-5              0.0023326649536979773             -1.75873331482844                        0.057263344960277886
-2.850388205790435        -2.549434068932896       1.0594278220799855                -0.7788929053704926               -4.3201023087881236E-4            5.571740978482393E-4              -0.0018650948946502463            0.001051343847643267              -0.792669966279921                       -1.4062047450653876
-3.1317816636301115       -2.3561944901923453      1.2085546582359727                -0.2675734541931804               -3.6292980261944146E-4            5.45582041116143E-4               -0.0022811256804017533            -4.432143984210945E-4             0.33416540462833655                      -1.7198748251750426
-2.1415622231277602       -2.8285947364172705      -0.15102931158067626              -1.0800302138629723               -6.267848210202829E-4             4.947954237454654E-4              0.0013759196310891635             0.0022277853085858512             -1.6796583814079062                      1.0373867408119357
-1.9634954084936207       -3.1317816636301115      -0.5507086403215543               -0.963615737502321                -3.480435829940224E-4             6.924751239515124E-4              0.001997553118467308              0.0016705443215150443             -1.2595216246072112                      1.5060727911303653
-2.2717003087412597       -2.5406673033153564      0.15888663759064733               -1.038653121604218                -7.772818371537045E-4             2.1228210816637765E-4             8.541979293451057E-4              0.0025357574442932177             -1.911856689291234                       0.6440300624464302
-2.8386382565316115       -2.160967756039824       1.1621827345618272                -0.631390926848095                -6.761487585423119E-4             2.1766301340612343E-4             -0.0015680093119791736            0.0013556736378977391             -1.0221220956852963                      -1.182214449857958
-3.1317816636301115       -1.9634954084936207      1.3301083745680249                -0.12983776160953775              -5.70668201053702E-4              2.7767271634045914E-4             -0.001989461302377328             -2.232794675735741E-4             0.16834352379507855                      -1.4999718950233816
-2.54861093100527         -2.3675627567840296      0.7106537948119146                -0.976814895732311                -7.45004111448537E-4              2.0279055189006655E-4             -4.8251728442204924E-4            0.002357248779094469              -1.7772685068036929                      -0.36379816216139
-1.7604065120235912       -2.834079906803439       -0.6302663198988282               -0.4745358112430303               -7.689739958680924E-4             3.4602620538417547E-4             0.002679889658349057              9.04841626714572E-4               -0.6822133247312984                      2.020526443255742
-1.5707963267948968       -3.131781663630112       -0.7985646712432278               -0.22453049996387736              -4.926841518844496E-4             6.394533545077849E-4              0.0027474461271814197             -1.0581057566754505E-4            0.07977681672315355                      2.0714612387476055
-1.9447126813964302       -2.5260752057705234      -0.4024271874304078               -0.6342807625298224               -8.607614715620487E-4             -3.436636853549125E-5             0.0022776806955562656             0.0018456005790019646             -1.391506833851837                       1.7172774484676705
-2.1704952693873927       -2.184001041015406       -0.06205348845700942              -0.7416575574603151               -7.796584818978461E-4             -3.7660304677672316E-4            0.0013839613409993986             0.002727091081901113              -2.0561143728367672                      1.0434498589227876
-2.825231468548349        -1.7669205965769934      1.1520020446296966                -0.44698842393803334              -6.724203734551855E-4             -1.7005756414915322E-4            -0.001427231547554489             0.0018111456700400444             -1.3655292513641994                      -1.0760738127774996
-3.1317816636301115       -1.5707963267948968      1.3695010717517873                0.04069018569413026               -5.88133245318279E-4              -8.125633971408132E-6             -0.0018239256510264757            1.1858187646591393E-4             -0.08940585159684103                     -1.3751648307422317
-2.5171148611776295       -1.9663696080997044      0.6338877787417858                -0.7630171560934822               -7.246518744685368E-4             -3.0323273588229955E-4            -2.744748813596684E-4             0.002815598599618391              -2.122845396413631                       -0.20694275753813798
-2.8236443058230565       -1.371082754655539       1.0600963103082732                -0.2794141771316099               -4.8031722739086993E-4            -4.209124375403961E-4             -0.0015178547163889578            0.0022304858901619033             -1.6816945087050075                      -1.1443999501731994
-3.1317816636301115       -1.1780972450961724      1.3388381514313195                0.19514692820506427               -4.6536031326732024E-4            -1.966363000601735E-4             -0.0018040587765573602            4.8731858955941337E-4             -0.36741814851491783                     -1.3601860255199232
-1.3734904935809436       -2.839861363136795       -0.6118235460067564               0.3232959274856572                -8.437040537526019E-4             2.4244235220050546E-4             0.0025566640633204736             -0.00104877671435217              0.7907344534942123                       1.9276194190932021
-1.1780972450961724       -3.1317816636301115      -0.48606518575818763              0.49956402058949206               -5.609070702424141E-4             6.120079974611715E-4              0.0018952173734119344             -0.0019057733610822237            1.4368746335963711                       1.4289158535936002
-1.5647620701855707       -2.5379593779713403      -0.6850755825245144               0.12495732760456614               -8.849476333374818E-4             -2.2361363907294604E-4            0.002854138758320664              3.198603280821496E-5              -0.024116151537245917                    2.151903088972954
-1.7570558304779373       -2.230001545387637       -0.6933558216734635               -0.10055109596079932              -7.017730547533648E-4             -6.208740702400387E-4             0.0027069537119946683             0.001213726035105899              -0.9150994486505063                      2.0409316251938434
-1.8524246377323152       -1.9039363369068603      -0.7706948784452239               -0.1595742313259816               -3.1723229794433536E-4            -9.138688317477831E-4             0.0023579134366482637             0.0018809527129284515             -1.4181608870146036                      1.7777696312283375
-2.183368113804704        -1.7525406088773272      -0.22718053006760444              -0.5663019534273195               -3.73315850688795E-4              -8.052362410852547E-4             0.0011080947318646208             0.0031129650699727967             -2.347047469367204                       0.8354577959542335
-2.5024087910180977       -1.5621274789902746      0.45529216128306566               -0.5928691434950418               -4.276697213320137E-4             -6.444725232991627E-4             -3.964189334471995E-4             0.0032509908365905564             -2.4511132134298297                      -0.29888355109767634
-2.8271452731983384       -0.9777516704363165      0.9342670169290717                -0.1709477817212054               -2.474942029521653E-4             -4.6839172973604256E-4            -0.0017553348372586293            0.002544214935847799              -1.9182332896398362                      -1.3234501817638324
-3.1317816636301115       -0.785398163397449       1.2742335063059127                0.30548834696479327               -2.909434334980704E-4             -2.3947459502841008E-4            -0.0018843733109362992            7.965411664337056E-4              -0.6005592375443414                      -1.4207398770506572
-2.511482924541589        -1.1673732987834917      0.2801091660274919                -0.515351920037797                -9.247716309849809E-5             -6.933424181001395E-4             -8.006734774050254E-4             0.0035171313761186407             -2.6517722204391405                      -0.6036748298461718
-0.986593579722867        -2.8432243092279297      -0.07475067752706382              0.8688752319933265                -8.716381184706677E-4             2.240049464493894E-4              0.0010128593672239124             -0.002457354929167139             1.8527444215392883                       0.7636542528530607
-0.785398163397449        -3.1317816636301115      0.2194825337856845                0.7844590088000973                -5.522013061000873E-4             6.37715843241825E-4               -7.536709218261691E-5             -0.0026115411888071754            1.9689945118438685                       -0.056823683852746096
-1.1800508054138592       -2.547941424590814       -0.40418864446260877              0.8479144195309968                -8.96022036156479E-4              -3.1467530019037515E-4            0.0019448787904022826             -0.001861758375485521             1.4036891470146415                       1.4663585169233897
-1.3726320913527899       -2.2471300315332012      -0.7315341779195829               0.6891308302962105                -6.250778770759882E-4             -7.77423130795752E-4              0.002557295728695395              -8.890686741435237E-4             0.6703211680304682                       1.92809566877361
-1.5271815171406742       -1.9567229230364682      -0.9767239297354317               0.4689935944841153                -1.909386302416875E-4             -0.0010203581944015939            0.0026852583854752895             7.565911393948441E-5              -0.0570438562318284                      2.024574242422167
-1.8576064363188396       -1.5818881503806288      -0.9932265180696725               -0.155982553551694                2.12767485034856E-4               -9.82657166762674E-4              0.002037177669199044              0.002029734538481351              -1.5303362565746668                      1.53594807062412
-1.6232431634125133       -1.7185457164038165      -1.1328259453573433               0.277201436578331                 2.055512773356766E-4              -0.0010427278882341184            0.0025240247046705803             6.983208504585936E-4              -0.5265051640587535                      1.9030106867756018
-2.1396672457345316       -1.3457396644435862      -0.5899846483691745               -0.5074836555612058               1.9159942423454553E-4             -8.762253374046145E-4             8.32882420404675E-4               0.0032171001765581866             -2.425561051399032                       0.627959046488211
-1.801837871426409        -1.308291101109578       -1.255223731199836                -0.16703791963567893              6.861601767287442E-4              -7.939804969292728E-4             0.0018206463649429565             0.0016982934538886912             -1.2804433276943814                      1.3726923840778296
-2.8298517541979202       -0.5880577028289069      0.8203806249909297                -0.12186400284005687              -8.399817181730563E-5             -3.4792482379092447E-4            -0.0020117997203558985            0.0027397754753672697             -2.0656778831608515                      -1.5168141422724741
-3.1317816636301115       -0.39269908169872414     1.2160105670217962                0.36676117538330083               -1.3148691313072587E-4            -1.5477778840574584E-4            -0.0019830248335272567            9.94209366551942E-4               -0.7495929203623535                      -1.4951190625672968
-2.831294069792905        -0.1988181617747682      0.7542599012979213                -0.1072569139910744               -1.4419688217029972E-5            -1.280160563327685E-4             -0.0021759838758521445            0.002827956597001835              -2.1321628175324983                      -1.640602234334498
-3.1317816636301115       0                        1.193213185091465                 0.3857414792673359                -1.129143353294073E-7             2.7334993503448353E-7             -0.0020256307618396535            0.001061134874128706              -0.8000519970507831                      -1.527242177982314
-2.8314014250435298       0.1905313111761601       0.7537858750044962                -0.10696464185151489              1.305873966094858E-5              1.2345589189132684E-4             -0.0021774836810242847            0.002828335426867856              -2.132448439651082                       -1.6417330256715965
-3.1317816636301115       0.39269908169872436      1.2161249646269985                0.3667313445331096                1.3140728914981225E-4             1.5528694318109174E-4             -0.0019827255878679118            9.94138861246415E-4               -0.7495397622654284                      -1.494893443663231
-2.5216738487027737       -0.7765022140265366      0.12808280864675448               -0.5138288226750175               1.0785772701228831E-4             -5.38207387333395E-4              -0.001248794613956058             0.003638154628700867              -2.7430187690906442                      -0.9415397129626557
-2.2152518095505664       -0.9545750285783401      -0.6217915017173339               -0.6247940075987861               4.103410418320173E-4              -6.493726628691636E-4             2.1346543623950148E-5             0.0034067862977331226             -2.5685765753996295                      0.016094414831569776
-0.6052067947789563       -2.840783308501377       0.6723518840559469                0.8590955543172719                -8.602258968079752E-4             2.996444909756622E-4              -0.0011029865225378151            -0.002478358536880952             1.8685802768168795                       -0.8316064164803283
-0.39269908169872414      -3.1317816636301115      0.9008866155038608                0.4576142128886719                -4.595906338948767E-4             7.142729483861131E-4              -0.0020323675568840027            -0.0017389058966310999            1.3110634370823178                       -1.5323214440213073
-0.79612187475394         -2.5558592920770975      0.295697720571709                 1.1347896539860967                -9.264320335134663E-4             -2.806634169473051E-4             -3.0638117000075596E-5            -0.0027264952470151087            2.0556651378694855                       -0.023099878525727285
-0.9866686935828027       -2.2610661622828334      -0.20634563331765257              1.2345967947222043                -6.29551829304007E-4              -8.221282349141399E-4             0.001055497397837824              -0.0024828491930416452            1.871966046634671                        0.7958015720814311
-1.16704773807246         -1.9734328790979052      -0.7121591470851563               1.1114746125724866                -8.993005666287024E-5             -0.001101572228926182             0.0018674584410057395             -0.0018249647582649004            1.3759482748090701                       1.4079867616854589
-1.3362698088480138       -1.7031354199954565      -1.1127093191039885               0.8058191178605086                4.5957855154247026E-4             -0.0010708580644665556            0.002270819423070851              -9.587340962736293E-4             0.7228460274611236                       1.7121043315641542
-1.5483847492693448       -1.446856971115332       -1.3554847058094508               0.3121085117353953                8.010718897669107E-4              -8.606729313696615E-4             0.0022662999664426176             2.3697606712874903E-4             -0.17867019582715185                     1.7086968473798545
-1.9166133512444006       -1.044514128542227       -1.221311302758931                -0.44316087259724807              7.723533351145224E-4              -5.882347784401509E-4             0.0011620766489822026             0.0021921647651003684             -1.652801958490891                       0.876157938459693
-1.6077630393639024       -1.1215823610291547      -1.4940430653725807               -0.019797097309953174             0.0011312046886280398             -3.9868732546035555E-4            0.0018615674466784145             3.726392493812078E-4              -0.2809546485706957                      1.4035451945566233
-2.8296047687737023       0.5807641746739861       0.8182308454943051                -0.1217518702187748               8.154231690679138E-5              3.451790117740717E-4              -0.002015194976527016             0.0027439297220963033             -2.0688100141206736                      -1.5193740256072221
-3.1317816636301115       0.7853981633974485       1.2744308918342555                0.30539833132335364               2.9117336249334495E-4             2.398301514418552E-4              -0.0018838799851703207            7.963897622456764E-4              -0.6004450850214643                      -1.4203679297385006
-2.523679357344727        -0.39539490867410865     0.01710181588830012               -0.5474557420290561               1.2252721995642223E-4             -2.885527542364464E-4             -0.001571690739930327             0.003664693535404573              -2.763028011860351                       -1.1849900949301622
-2.5272142900858716       -0.007069723474965161    -0.015175823135759325             -0.5623585385984318               2.2746526004576244E-6             -5.051988209805863E-6             -0.0017057618719716564            0.0036599376608486608             -2.7594422782943853                      -1.2860742073759046
-2.5260107461585912       0.37668395969297125      0.01974148538922821               -0.5462083689361136               -1.1836403516545797E-4            2.758854226912448E-4              -0.001588879183612887             0.003663240753430219              -2.7619326740779457                      -1.1979494736384704
-2.2246169476006825       -0.5649559199401942      -0.7421285937402153               -0.7461917999482751               4.083409508598062E-4              -3.588454490426912E-4             -4.678450812044468E-4             0.0033019354159618546             -2.4895233283536142                      -0.35273592514367236
-1.9327156697844763       -0.7109013460269064      -1.299145408212226                -0.6498667515117661               7.720613468949274E-4              -2.702489581317391E-4             6.84730653939857E-4               0.0019858945417693414             -1.4972827044058696                      0.5162587155344266
-0.20995823776570505      -2.833155740676875       1.2242537454227442                0.26692984431666056               -7.864637819443225E-4             4.6665747607754223E-4             -0.0027249706789476157            -0.0010006033523847471            0.7544137223728901                       -2.054515676329039
0                         -3.1317816636301115      1.1345013727939166                -0.2993137214847099               -2.705997588475467E-4             8.061927384161694E-4              -0.0028346644456377157            2.7186363691443006E-4             -0.20497398675872502                     -2.137220259171533
-0.41936988623320054      -2.537319260131131       1.0114760124090754                0.8451569911167082                -9.630200397279589E-4             -1.6188350067074923E-4            -0.0020265290795432474            -0.0021002794973084753            1.5835242504551321                       -1.5279194725376708
-0.6055635949022657       -2.265686272488405       0.5773724185829286                1.237478908663629                 -7.301125689570962E-4             -7.50323369988344E-4              -0.00103445049961835              -0.002702413190110839             2.037508258674301                        -0.7799330775452952
-0.7985953617287677       -1.9757498008843166      -0.036458960951136876             1.401104560164514                 -1.360196137046833E-4             -0.0011326360228275005            1.276062763932448E-4              -0.002812268786121961             2.120334854160638                        0.09620987751293797
-0.980623226261733        -1.6969224366797684      -0.638340950014238                1.270831449875961                 5.779157749010576E-4              -0.0011052794478035712            0.0010810783127586006             -0.0024489938991142913            1.8464405491906621                       0.8150885284973706
-1.1698320210442081       -1.4265934228596515      -1.128527311755798                0.891715219896516                 0.001148544802756726              -7.174727891857362E-4             0.001698253788222811              -0.001775829998187355             1.33890268910355                         1.2804134214157594
-1.3108143768479887       -1.1601992558113385      -1.3769562134857267               0.44314100740695844               0.0014324943634038093             -1.6487569597354844E-4            0.0017986252199457787             -0.0012783610258519159            0.9638315699731322                       1.3560893475912537
-1.644085152623491        -0.8318870187245259      -1.525920590567374                -0.3141507486044279               0.0011389095589825198             -1.0935680040272401E-6            0.0014724829765673006             2.071068535027624E-4              -0.15615003878167855                     1.1101915267776428
-1.4224340176691042       -0.9360231751516128      -1.462226707123937                0.05639532727900196               0.0013963304833135009             2.487140142779574E-4              0.0016863515992478692             -0.001041617029740164             0.7853363461360009                       1.2714396610664944
0.18710225058778693       -2.825196975751175       1.199611476573695                 -0.6028767108319556               -6.033898957404287E-4             6.84617949350022E-4               -0.002845750134896508             0.0012159260132100639             -0.9167581415448948                      -2.14557841235867
0.39269908169872436       -3.1317816636301115      0.7399991496283036                -1.049234808185526                1.2079486612265406E-5             8.493153435650072E-4              -0.0019824831233413317            0.002301033637238016              -1.7348846048103883                      -1.4947106353949953
0.5814104918334251        -2.8264205529501325      0.5609281648116888                -1.2583527827912901               -2.7610150339806846E-4            8.64623430202105E-4               -0.001363936725378821             0.002913725727342484              -2.1968292097954873                      -1.0283521233681328
0.7853981633974485        -3.1317816636301115      -0.10740048320614029              -1.3450045140207267               3.4858653742892153E-4             7.716540608183413E-4              9.171008272215285E-5              0.003185477985554003              -2.401719221598846                       0.06914562570737962
-2.825768434848956        0.9727358469265245       0.9302299886657827                -0.1718690583833784               2.442960171168941E-4              4.692336345555584E-4              -0.0017558108622101618            0.002554855426182118              -1.9262557811714256                      -1.3238090849743527
-3.1317816636301115       1.1780972450961722       1.3390488873938873                0.19497118749267145               4.6581391746282374E-4             1.9675640321415323E-4             -0.001803419278461941             4.8694134651374696E-4             -0.3671337227935346                      -1.3597038702908144
-2.5197521788847563       0.766925604274633        0.1193454435913428                -0.5161884532714742               -1.1284097400446418E-4            5.338441533926678E-4              -0.001252008382972889             0.003642567711759149              -2.7463460519837146                      -0.9439627624567991
-2.2241922507268193       -0.1932154570579293      -0.8065056156288374               -0.828599788082672                1.7134289211611362E-4             -1.1265907015027875E-4            -7.144714797994012E-4             0.0031808975318509784             -2.3982657481320424                      -0.5386820734910721
-2.224701688279381        0.17796870090635908      -0.8064731852086605               -0.8300586046044209               -1.5889589645330055E-4            1.0395683972771112E-4             -7.214862965097294E-4             0.003180159960574376              -2.3977096497630224                      -0.5439709564171482
-2.222256702242089        0.5513712554258386       -0.7514084426131556               -0.7506903786395228               -4.0555621228460185E-4            3.485882935224671E-4              -4.7253555060160473E-4            0.0032893825700406176             -2.4800589994612077                      -0.3562723459133535
-1.929655958681523        -0.35912099921910556     -1.3427094107279822               -0.8154027946708683               4.820682333035015E-4              -6.332982026287836E-5             3.910667321487017E-4              0.0016397893657883022             -1.2363336544930519                      0.2948482117248214
-1.645207563904221        -0.5061453452894543      -1.4909801241441925               -0.5582254116329047               8.379082591370808E-4              2.2410863886042053E-4             0.0011859780950215736             -3.6605540986874165E-4            0.2759907047039602                       0.8941786445003852
-0.019970766067958754     -2.5202091913001476      1.37543000664226                  0.050672930008578844              -9.702574782003065E-4             1.0426323284480283E-4             -0.0030990370845217653            -1.8693794292295248E-4            0.14094351076989778                      -2.3365463418982375
-0.2317923782986184       -2.2205427378426745      1.1779901698327568                0.7259573417098633                -8.521150930675306E-4             -6.164680703447045E-4             -0.00264021801318204              -0.0015468523203301813            1.1662629494096657                       -1.990615656497156
-0.4317761240802843       -1.9731550355866763      0.715838698127704                 1.1733708564795438                -3.5775720968998667E-4            -0.001079104194191083             -0.0017170945806544485            -0.002432909345952559             1.8343134584763188                       -1.2946186030363593
-0.6211708186713213       -1.68909039992794        0.09244435770759274               1.334602454300315                 4.4107136504261535E-4             -0.0011887135884378743            -6.029273334953062E-4             -0.0027869228391960437            2.1012250539367274                       -0.4545823806191442
-0.7908236092056261       -1.4135326973133397      -0.46858194872440134              1.181584695186501                 0.0012103801131578744             -7.849735716086394E-4             3.293078002124261E-4              -0.0026661707521989826            2.01018295296971                         0.24828452030726114