% Model:              111(6.3).mph
% Version:            COMSOL 6.3.0.290
% Date:               Apr 14 2026, 22:25
% Dimension:          2
% Nodes:              496
% Expressions:        8
% Description:        , , , , , , , 
% Length unit:        m
% X                       Y                        real(emw.Ez) (V/m) @ freq=0.09549 imag(emw.Ez) (V/m) @ freq=0.09549 real(emw.Hx) (A/m) @ freq=0.09549 imag(emw.Hx) (A/m) @ freq=0.09549 real(emw.Hy) (A/m) @ freq=0.09549 imag(emw.Hy) (A/m) @ freq=0.09549 real(d(emw.Ez,x)) (V/m^2) @ freq=0.09549 imag(d(emw.Ez,x)) (V/m^2) @ freq=0.09549
-2.8839632261722055       -2.872493695425857       0.8366634803948051                -0.7891054986327108               1.4477247360495694E-4             6.539122908906928E-4              -0.0023826735817259596            8.209742789358279E-4              -0.6189807982036685                      -1.7964377609822892
-3.131781663630111        -2.748893571891069       0.9299280441164332                -0.31274061987093477              2.0630633048282666E-4             6.077088457126351E-4              -0.002787940984010009             -4.7598363246572695E-4            0.3588720576452394                       -2.101992693198766
-3.131781663630112        -3.131781663630112       0.7867237798102134                -0.20946234153848367              5.066344948123368E-4              3.8716822907613666E-4             -0.0030012609443196897            -2.697242931167465E-4             0.2033610096344737                       -2.2628271586541473
-2.748893571891069        -3.1317816636301115      0.5963357610901182                -0.9717468387303348               3.156821214167387E-4              5.947299981154054E-4              -0.002046779180006164             0.0014858486283680576             -1.1202686778314723                      -1.5431872143778755
-2.850669300600455        -2.550344501661108       0.972457563179748                 -0.8352136284300028               -2.2051855358463612E-4            6.471917881769845E-4              -0.0020055376717512726            9.448873362562607E-4              -0.712406140624236                       -1.5120928154987467
-3.1317816636301115       -2.3561944901923453      1.1109510378224399                -0.3210827344357621               -1.5159027728165717E-4            6.158717908601823E-4              -0.00246073450027727              -5.502282347460165E-4             0.4148494303363022                       -1.85529247898397
-2.55243018904837         -2.795239472061327       0.5007025024575967                -1.2085196201707962               -2.033345075882845E-4             7.009868003202493E-4              -8.626666796314935E-4             0.0020294550477754853             -1.5301255320920053                      -0.6504151514151745
-2.3561944901923453       -3.131781663630112       -0.003212454334324203             -1.2914354860506099               7.640531301940892E-5              7.12328365001781E-4               -1.351404350112125E-5             0.0023077226841289023             -1.7399278707079628                      -0.010189032285062589
-2.8413581136375834       -2.165136568976675       1.1201809039495803                -0.7373316087501304               -5.402561743858908E-4             4.2208811331486117E-4             -0.0016519584434510671            0.00113524194772232               -0.8559256787755897                      -1.2455086379223315
-3.1317816636301115       -1.9634954084936207      1.2672941819702332                -0.2366848497707021               -4.2062749435307765E-4            4.436140461199697E-4              -0.0021166647021343098            -4.4424861619759214E-4            0.3349451622422325                       -1.59587802014323
-2.5484237779767014       -2.367697348662309       0.6751215585724389                -1.0770359500941213               -6.221175230393129E-4             4.154293163408866E-4              -5.215916001594575E-4             0.0021928308449264953             -1.6533041552503043                      -0.3932585871283624
-2.2661036854323635       -2.5342708580906526      0.11788903945324285               -1.1230169132699892               -6.670043194067188E-4             4.118857517327717E-4              8.647823317577599E-4              0.002413560394118805              -1.8197251455927692                      0.6520102659948117
-2.137262692069597        -2.824464587110099       -0.2163677023376354               -1.1371310149815612               -4.566134628903549E-4             6.309892957649693E-4              0.0013524058918141053             0.0021401827235266557             -1.6136096397896764                      1.019658349705585
-1.9634954084936207       -3.1317816636301115      -0.6244507278453703               -0.9896923848582031               -1.4630327188512043E-4            7.402797854905102E-4              0.001947332382733385              0.0016318487915280063             -1.2303467884974397                      1.468208424500934
-2.5157382431046362       -1.9670804103887045      0.671479144238453                 -0.8775037020492026               -7.545939046228134E-4             -4.465465810277224E-5             -1.8375497430950856E-4            0.0026181980121824985             -1.9740134825376876                      -0.1385436835115328
-2.8292123364220867       -1.7676260171334117      1.181282154081045                 -0.5717540267885091               -6.597897724882966E-4             7.709501555741551E-5              -0.0013873969448613497            0.001523734106544544              -1.1488327682344095                      -1.0460401627548868
-3.1317816636301115       -1.5707963267948968      1.3613973782775766                -0.09709855673075996              -5.275578631017473E-4             1.9781077105151612E-4             -0.0018483989125970316            -1.8872430482429428E-4            0.14229035408027096                      -1.3936166621457997
-2.179051782976634        -2.164790393915309       -0.006579492737658121             -0.8385562674237966               -8.257685697196234E-4             -1.3468449777424214E-4            0.0014262224139087818             0.002626560334302277              -1.9803183290515711                      1.0753129675652426
-1.927826168135584        -2.5084364186031443      -0.4261565009779991               -0.6855539318600127               -8.259779386252157E-4             1.6709540626890496E-4             0.002360776230279741              0.0017033586910756209             -1.2842623079444337                      1.7799280597352591
-1.7549443801926905       -2.828391585164066       -0.6726568509117947               -0.53045185240354                 -6.428995714661567E-4             5.13640665272236E-4               0.0026836149338246053             8.221264617808208E-4              -0.6198494966213518                      2.023335147555677
-1.5707963267948968       -3.131781663630112       -0.8621355642240843               -0.2604396480869267               -3.109792738835072E-4             7.222603137128328E-4              0.0027298795739238                -1.3647748680374123E-4            0.10289840484175942                      2.058216780990436
-2.202043109057271        -1.752917800314171       -0.07153558177741447              -0.6419400028211683               -5.964848447533829E-4             -5.931366196095309E-4             0.0012281044682085998             0.0030576244015874435             -2.305322884359873                       0.925940195099182
-2.5156821429810505       -1.5658315998124255      0.6000124250588259                -0.6742135933435476               -6.01061953057584E-4              -4.171250567541012E-4             -2.1978669961870623E-4            0.0030479746619233978             -2.298047378034083                       -0.16571012059096513
-2.8262933223620466       -1.3734644504207336      1.156725646138834                 -0.3936918457847099               -5.731756906710115E-4             -2.034960581762616E-4             -0.001322399907819454             0.0019441888504420704             -1.4658383306054477                      -0.9970350734344078
-3.1317816636301115       -1.1780972450961724      1.3888023510656806                0.05096019991431021               -4.8158710368014494E-4            -7.229097419270193E-6             -0.0017010816271907352            1.363028544438762E-4              -0.10276673923386544                     -1.2825454955458113
-1.8563435459232407       -1.8789381713461744      -0.6745549219047201               -0.19825788662513377              -5.26023758437139E-4              -7.743309814263631E-4             0.002477002011157641              0.0019005218390203925             -1.4329152022219438                      1.867557512283882
-1.9018174770665295       -1.5581113559013082      -0.8086895111037108               -0.20154642411811619              -1.1342787749103793E-4            -9.365776626178726E-4             0.002095501994839252              0.002315716706888904              -1.7459550346713184                      1.5799222103331774
-1.742925355257304        -2.209096928734582       -0.6526795534003761               -0.13507586785099                 -8.06048970618215E-4              -4.332429274116854E-4             0.002805390223632154              0.0011092185140386178             -0.8363050814355392                      2.11514870130582
-1.5540524110195275       -2.527086334379993       -0.6723717419751339               0.07260605691324516               -8.924649487559879E-4             -1.4530374132499326E-5            0.002885521785726814              -6.109906173039446E-5             0.046066176456096904                     2.1755645992690944
-1.3672950757010518       -2.8346554135259163      -0.6347583945922666               0.2697852498494266                -7.493636975455319E-4             4.1766245827979596E-4             0.0025545779599236216             -0.0011042790222564327            0.8325809080424088                       1.9260465830387121
-1.1780972450961724       -3.1317816636301115      -0.5430441108090185               0.46174046620830556               -3.9758837272955364E-4            7.06233198138832E-4               0.0018992769433738219             -0.001920325322503987             1.4478462132516405                       1.4319766021698284
-2.8198161504013712       -0.9768768560353481      1.0651893370907517                -0.26115401877474714              -3.8095361161408475E-4            -3.2944840792943045E-4            -0.0014021354573860896            0.002361719667825991              -1.7806393727939218                      -1.057152394259537
-3.1317816636301115       -0.785398163397449       1.3719038958258636                0.17143281732699014               -3.429355326779705E-4             -1.0353226184151322E-4            -0.0016628112983747099            4.3997441053512915E-4             -0.3317225871865714                      -1.2536912436089949
-2.1983894723121136       -1.367394282740319       -0.28255310196859446              -0.5254516209221767               -1.9956483415796943E-4            -7.977095370335757E-4             9.304422276514498E-4              0.0033825402046544473             -2.5502960196840316                      0.7015151235926984
-2.501931419574105        -1.1683835229328865      0.4152710144303548                -0.5439441789041312               -3.132242022682295E-4             -5.893090045621691E-4             -4.023438339665309E-4             0.003471035752572248              -2.617018018525012                       -0.30335068209901156
-1.8771638075435269       -1.2337669953331205      -1.073840862715716                -0.19647335543574093              3.569231011085064E-4              -8.832872213450152E-4             0.0017397892171623465             0.002293076555477516              -1.7288852928394094                      1.311729424387315
-1.606007314682055        -1.655524603121831       -1.0764855300637246               0.33146296826796723               3.177989475514821E-5              -0.0010434844321514465            0.0025796188641955355             6.902416795142866E-4              -0.5204138018708743                      1.9449263936633068
-1.667884624218161        -1.4129290206840597      -1.2182380997805684               0.17799347564765883               3.905462892337997E-4              -9.794675314551396E-4             0.0022895827609447105             0.0011005827447508293             -0.8297940670176616                      1.7262511156378053
-1.5059817145312273       -1.9329373728068757      -0.8955268362066776               0.4967431925960097                -3.9312088997805935E-4            -9.395776872710263E-4             0.0027372657004800065             -7.3820368167863705E-6            0.005565751764045779                     2.063785616249587
-1.347197744821074        -2.23409828723205        -0.656437745578584                0.6862432239333521                -7.602742898834308E-4             -6.172050969754027E-4             0.0025408711869309565             -0.001010664578240315             0.7619994723418896                       1.9157122406537186
-1.1656533751828646       -2.5373650639014653      -0.36807068685020283              0.8022926141598886                -9.23522742014572E-4              -1.2317618733557477E-4            0.0019119907437129572             -0.0019150783056797478            1.4438901786408305                       1.4415622840651503
-0.9781557057919594       -2.838491718789489       -0.08415306640650955              0.8143402737737052                -7.914345886482695E-4             3.90884600013371E-4               9.874465380184246E-4              -0.002473529308980285             1.864939237849694                        0.7444940261445989
-0.785398163397449        -3.1317816636301115      0.16480824878562383               0.7498377182013463                -4.000416400976205E-4             7.252957479765155E-4              -5.763281328769542E-5             -0.0026129479904798275            1.9700551823722816                       -0.043452767872072584
-2.819671302578071        -0.5808875812670438      0.9741689168972761                -0.17920136719877663              -1.93137078260604E-4              -2.7571482435438107E-4            -0.0015603236518954386            0.0026375798296196366             -1.9886265747327665                      -1.176419778653985
-3.1317816636301115       -0.39269908169872414     1.34359987182734                  0.24669843165839372               -1.738311414270937E-4             -8.638401087426547E-5             -0.0016790034257985673            6.500117703288774E-4              -0.49008210703200084                     -1.2658994408870226
-2.4947513142650037       -0.7715892134395502      0.23146234990799344               -0.49404222767035605              -7.221455191510786E-5             -5.165800551128725E-4             -7.218314127202708E-4             0.0037399078666429816             -2.8197365202519333                      -0.5442311598278455
-1.5493160724348842       -1.1278551211009502      -1.4595798003571154               0.2239575488400658                9.589971227794628E-4              -6.645795273661272E-4             0.001917499705986181              2.719606714561363E-4              -0.20504714680724265                     1.4457158147574565
-2.1313207412785724       -0.956902819759937       -0.6894642914511516               -0.4947735794745895               2.4144576153413254E-4             -7.238294507182763E-4             6.533653920640673E-4              0.0033978697939939864             -2.561853898766214                       0.4926105997165851
-1.7827087572332756       -0.9552296162468036      -1.3727606512911017               -0.19476097974646564              7.302636390442909E-4              -6.204354664626849E-4             0.0015030050597074325             0.0016617454511306667             -1.2528876386790866                      1.1332039205513027
-1.273791089381535        -1.674369017732607       -0.989005064008554                0.9435193604161941                2.6704337628088537E-4             -0.001124588759786279             0.0021206165131826492             -0.001205499186405747             0.9088967435161606                       1.5988575229362068
-1.4051124823291934       -1.423669160682644       -1.2692185248844028               0.6367218900998908                6.912839389511816E-4              -9.7077579178164E-4               0.00218784518619228               -4.8055349171994806E-4            0.36231754333392946                      1.64954517387652
-1.1351615356118836       -1.9532985933143643      -0.5963893512463816               1.1466254435185173                -2.858665301231677E-4             -0.0010524493657202646            0.0017515706752847598             -0.001907032362819195             1.437823869059753                        1.3206121586455277
-0.9673988709597283       -2.244482696910519       -0.12337191059518636              1.2063170854371632                -7.550078785379402E-4             -6.878846851270959E-4             9.677479710387611E-4              -0.0024955235166216447            1.8815219646792762                       0.7296421178383538
-0.7792130901622938       -2.542853978997534       0.3405770201189751                1.0750540979240364                -9.495116261730698E-4             -1.111786454934668E-4             -1.1036339997621377E-4            -0.0027058460542618793            2.040096496877196                        -0.08320945876440454
-0.5897051020028024       -2.840197674306077       0.6723285961282763                0.7883837728628994                -7.746679623608165E-4             4.574492333183063E-4              -0.0011615352627624173            -0.002429478148706019             1.8317264770507726                       -0.8757497555445188
-0.39269908169872414      -3.1317816636301115      0.8461067955258164                0.4296528357423449                -3.131928496824123E-4             7.837386305442782E-4              -0.002004381847576073             -0.0017367174060828015            1.3094134053319895                       -1.5112213716680394
-2.8221091454812646       -0.1871984542705292      0.9228978452456184                -0.14114353601947016              -5.708951092886256E-5             -1.0364069215874527E-4            -0.0016752161146617551            0.002762675069165247              -2.082943233868288                       -1.2630439642531524
-3.1317816636301115       0                        1.3307928824170883                0.2726653432993098                -4.452661432701443E-6             -6.031022560230316E-8             -0.001691894289629577             7.262637392188578E-4              -0.5475729514824523                      -1.2756186213636582
-2.505119246374407        -0.3714683393899318      0.14206430054527042               -0.4818495272993852               1.3184225790208681E-5             -2.814832997946229E-4             -0.0010363267838758188            0.0038494528718584866             -2.902328943068651                       -0.7813477186091426
-2.1831874239512774       -0.5560169386344368      -0.7255571541818292               -0.5883847279668074               2.663529228871875E-4              -4.396935691274922E-4             2.0651097823349436E-5             0.00354424309815602               -2.672213342381628                       0.015570077336707936
-1.2177928854355338       -1.1502211910840037      -1.2708218582480242               0.6919544196564013                0.0013639179593381298             -4.34724452532839E-4              0.001516122458003759              -0.001590740947030592             1.1993531665871107                       1.1430938986859895
-1.3308493940413977       -0.9189782831070176      -1.4302990930552377               0.3223714655833424                0.0014055237916736185             -2.3440432191472293E-5            0.0014350395487830096             -0.0013336743655111862            1.0055355502464072                       1.081960724166574
-1.5633864580767096       -0.7975168928535745      -1.5635491179470191               -0.05015403716698905              0.0010770308102918038             -2.1549516075326618E-4            0.001439486579305283              -1.314802889728519E-6             9.913072346426864E-4                     1.085313602049522
-1.8753838454451672       -0.6675798542121711      -1.352559422115433                -0.42917836885717037              6.337559845015418E-4              -4.175809352083842E-4             9.307649099572599E-4              0.002062476101445852              -1.5550220467366584                      0.7017584127630672
-0.9191229380194086       -1.6740080039258134      -0.46319637874130265              1.3430349575410399                3.886962482235595E-4              -0.0011796523326979946            7.509028356688844E-4              -0.0025464166885056               1.9198933204745894                       0.5661498155559818
-1.0713605511154412       -1.4067763725441118      -0.9406987398563785               1.0816961540138832                0.001008874620583617              -9.038708061759462E-4             0.0013068832239361112             -0.0020813659513489466            1.5692642156705274                       0.98533613277084
-0.88596778087067         -1.131394610454178       -0.739604134085626                0.9377228759391797                0.0016615205209446395             -2.4232249701110157E-4            5.488322633703396E-4              -0.0024777098964004107            1.868091228605877                        0.41379692540581164
-0.7594839996406991       -1.956560322193245       0.10376865249266742               1.3899239431728991                -3.116608672657224E-4             -0.0010898305162617926            -1.0709905497909146E-4            -0.002788723826164094             2.102582923945132                        -0.08074827706386449
-0.5813093015973868       -2.2492848914751766      0.6613887556029038                1.1750321383595261                -8.343209350014702E-4             -6.241869601724245E-4             -0.0011661451982345906            -0.0026222740992741726            1.9770866843495918                       -0.8792254570511869
-0.39270877547736044      -2.5447641593227313      1.0562248335630366                0.7345557103799146                -9.693095446406549E-4             3.53200396113731E-5               -0.002127083834390819             -0.0019599682805298297            1.477735371087131                        -1.6037336167997822
-0.2006545703658961       -2.840231875026738       1.1942525217490652                0.19396972114535657               -6.831420214882287E-4             6.083334093416057E-4              -0.0027121124014342977            -9.293798866485782E-4             0.7007141622242444                       -2.0448210645940224
0                         -3.1317816636301115      1.0800763075758433                -0.3180631252354753               -1.3132181366035472E-4            8.517910763012329E-4              -0.002799269032541719             2.66858947769545E-4               -0.20120065723897723                     -2.1105335752972123
-2.8228575550370727       0.20357839332569352      0.9249000886561282                -0.13950835283715482              5.339407931350886E-5              1.061212915734838E-4              -0.0016747708780280042            0.00275947689194575               -2.080531939947257                       -1.2627082741663618
-3.1317816636301115       0.39269908169872436      1.3438408956295809                0.24935347131583305               1.6530496810890054E-4             8.749008790251937E-5              -0.0016769748458931298            6.563985027601025E-4              -0.4948974402764447                      -1.2643699751762145
-2.508649887777372        0.01996578034007795      0.11278263080608363               -0.48122182842013544              -3.117335125060988E-6             9.19794367453806E-6               -0.0011460658778223263            0.0038789261293649814             -2.9245505655056916                      -0.8640864763363698
-2.199758900302401        -0.15308311109929137     -0.7652364810088593               -0.6430392245802126               9.534539943281082E-5              -1.264078773784274E-4             -2.9201909574701163E-4            0.0035576548287088567             -2.6823252349169806                      -0.22017037270704498
-1.880082648638574        -0.30266737511540803     -1.420306949435613                -0.5709708795956883               3.7134440699413654E-4             -1.5805148433490514E-4            5.666883411509956E-4              0.001872007043595699              -1.4114162207246554                      0.42725967273059257
-1.0585755163198711       -0.882935283122573       -1.0263441790638153               0.5205502924886094                0.0017722174852483716             4.523946438137058E-4              8.219575278260327E-4              -0.00239164291648394              1.803200270028306                        0.6197221273762227
-1.2843525320375473       -0.6448237002708375      -1.3187727881000584               0.08520213334798721               0.0012981450368346442             5.149397756125522E-4              0.001023519587077234              -0.0021365716169535038            1.6108870141406173                       0.7716916196295066
-1.5578601041988596       -0.4689369575599606      -1.5770672961214276               -0.2798376358719408               8.076977019150659E-4              4.348583364408717E-5              0.0010497640310973971             -5.39075177327977E-4              0.4064404843313458                       0.7914788496619373
-0.7126699560854171       -0.8164352620553476      -0.37704133262866635              0.526441972728838                 0.0021527749890809804             8.032934534965573E-4              3.245671717217513E-5              -0.0019906703068994125            1.5008834346456483                       0.02447102816466438
-0.5554757562787271       -1.665394690529271       0.2744505724495911                1.309218457595975                 2.6259032759120833E-4             -0.0012458943110787676            -9.691578994733196E-4             -0.0026769430350993793            2.0183048106688415                       -0.7307051458164828
-0.7194629291503256       -1.387649701140148       -0.29439696696181006              1.2343514261992217                0.0010873154147234205             -9.597606486981071E-4             -7.645872763275143E-5             -0.002680720960132389             2.0211532105669683                       -0.05764673202807694
-0.5330898517442626       -1.093056646094835       -0.1084898428149292               0.8884401859086001                0.0016329290406502063             -5.343354044332377E-4             -5.133192799015153E-4             -0.002186974656415489             1.6488888302736526                       -0.3870215983119834
-0.38326230863129457      -1.9579313311498863      0.84899380470112                  1.0855610721696929                -5.236095721092149E-4             -0.0010149194957017038            -0.0019528012419969649            -0.0022425119472884846            1.690761660539658                        -1.47233171917543
-0.19607117570139088      -2.250961735318117       1.258872122141837                 0.580369181885838                 -9.680947755428413E-4             -4.027311918118549E-4             -0.0027577412409058324            -0.001302678645652642             0.9821660538916515                       -2.0792233305381003
-0.008380797861127885     -2.5426687571539865      1.3664338146086115                -0.049579803447008915             -9.367472467984656E-4             2.9679372178131625E-4             -0.003073823918576288             -6.438234092791076E-5             0.048541633764014595                     -2.3175366530655945
0.1917124375970892        -2.840009994542015       1.1491636810521315                -0.6580975592208294               -4.838598567003712E-4             7.973402305921951E-4              -0.002784281020642256             0.0012572566847281101             -0.9479197658526565                      -2.0992332315385247
0.39269908169872436       -3.1317816636301115      0.6890534248035317                -1.0574804857463762               1.3796074558302968E-4             8.710342437553283E-4              -0.0019456799986605142            0.002281263818028712              -1.7199789752571957                      -1.4669625949559568
-2.8219877467172596       0.5952417900902708       0.9796638841565689                -0.17437654585885587              1.9055167715009637E-4             2.7628878347659146E-4             -0.0015608186837695775            0.0026281001871361893             -1.981479314676464                       -1.1767930123014358
-3.1317816636301115       0.7853981633974485       1.373062468602425                 0.17638295736600704               3.3591735074376045E-4             1.0797370599121112E-4             -0.0016573989516672882            4.51540131316083E-4               -0.3404426643734904                      -1.2496105570746283
-2.506846128018611        0.4089105586173061       0.15171470885989088               -0.4784174802272126               -1.4564232114482086E-5            2.9640009261917014E-4             -0.0010274357574340317            0.003845561705759571              -2.899395164070152                       -0.7746442508087615
-2.1912818979067077       0.236101509242826        -0.780678801881352                -0.6375771914210899               -1.3775671139177117E-4            1.7766620187322738E-4             -2.437056359260429E-4             0.0035362258484794903             -2.666168666279706                       -0.1837440135734458