% Model:              111(6.3).mph
% Version:            COMSOL 6.3.0.290
% Date:               Apr 28 2026, 16:32
% Dimension:          2
% Nodes:              3247
% Expressions:        8
% Description:        , , , , , , , 
% Length unit:        m
% X                       Y                        real(emw.Ez) (V/m) @ freq=0.09549 imag(emw.Ez) (V/m) @ freq=0.09549 real(emw.Hx) (A/m) @ freq=0.09549 imag(emw.Hx) (A/m) @ freq=0.09549 real(emw.Hy) (A/m) @ freq=0.09549 imag(emw.Hy) (A/m) @ freq=0.09549 real(d(emw.Ez,x)) (V/m^2) @ freq=0.09549 imag(d(emw.Ez,x)) (V/m^2) @ freq=0.09549
-3.0526754640444844       -3.049455234497837       0.9628991403190067                -0.4525574689936807               9.089344263329124E-5              6.215670669134263E-4              -0.0026782163101926443            5.285020405875695E-5              -0.039846877463591265                    -2.0192648076550848
-3.1317816636301115       -3.010692959690219       0.9712180606016462                -0.29380926670134105              1.035532868316741E-4              6.083248265897972E-4              -0.0027293740060562997            -3.767563793762497E-4             0.2840587950415725                       -2.057835603637867
-3.131781663630112        -3.131781663630112       0.9172236055658328                -0.27895307882505227              2.2207730293604143E-4             5.746753249058242E-4              -0.0028044234340202446            -3.3761370201287286E-4            0.25454682822378444                      -2.1144197817512995
-3.010692959690219        -3.131781663630112       0.919027495659129                 -0.5297205744062043               1.4945131879944273E-4             6.150267040542623E-4              -0.0026638740676311547            2.9413039032286125E-4             -0.22176220187311388                     -2.0084513473841383
-3.041563222327144        -2.9436212223654628      1.0122412697308711                -0.4771828294942589               -2.6962147025178196E-5            6.304329137993473E-4              -0.002590043065689014             9.137162860902211E-5              -0.06889044524378149                     -1.9527858123157797
-3.1317816636301115       -2.8797932657906435      1.0316483769028424                -0.29756394079003234              -2.7444012721042783E-5            6.161548909084159E-4              -0.002638623535872371             -4.0310620428844697E-4            0.30392547792696123                      -1.989413486267005
-2.943298068883929        -3.0249710589177243      0.9468239159796283                -0.6656640549845511               -8.412984707548424E-6             6.463900953859362E-4              -0.002451950180226807             6.134429796171324E-4              -0.4625107447556583                      -1.8486694634084273
-2.8797932657906435       -3.131781663630112       0.8574008641891421                -0.7783843114534343               6.778895102046444E-5              6.485949891819238E-4              -0.0023478296293866553            9.423866629495481E-4              -0.7105207359298993                      -1.7701668558090966
-3.0376627789004482       -2.815103572457812       1.0721323768220674                -0.47552996662055397              -1.6116655453389948E-4            6.113110540733971E-4              -0.0024905029742234414            1.0517263640157543E-4             -0.07929583678725692                     -1.8777366824593715
-3.1317816636301115       -2.748893571891069       1.091454958318145                 -0.2885731100686955               -1.5472188563078867E-4            5.958257003670352E-4              -0.002541430381104605             -4.104218597995751E-4             0.30944118092015466                      -1.9161338500327656
-2.941478513128614        -2.8815873618228416      1.0148686575186672                -0.6596215841202328               -1.6396193601755625E-4            6.274213925718809E-4              -0.0023463550380140746            6.131702460348488E-4              -0.4623051148659159                      -1.7690550746385494
-2.847949775707449        -2.9399478010103324      0.9273125075758891                -0.8248190014489991               -1.6793589854618193E-4            6.406708729217653E-4              -0.0021183653135266713            0.0010716477813727178             -0.8079782961862133                      -1.597160211101079
-2.8072799517074922       -3.034686171470736       0.8451796359166269                -0.8978765928343325               -8.977644468179367E-5             6.606460924870328E-4              -0.002042595734556327             0.001257438298557619              -0.9480566952011618                      -1.5400330687849857
-2.748893571891069        -3.131781663630112       0.7354710798962444                -0.9882198626100571               -1.5141211846392999E-5            6.712031548675327E-4              -0.0018808462185787287            0.001509296534518014              -1.1379474334725357                      -1.4180805946604014
-3.0350060670781454       -2.6849297623720476      1.129521341044583                 -0.4584247550172629               -2.8672301650025636E-4            5.631085734350281E-4              -0.0023890819749001015            1.3272494164838408E-4             -0.10006914032622664                     -1.8012694255348924
-3.1317816636301115       -2.6179938779914944      1.1479707687972807                -0.267505419076083                -2.721655135642503E-4             5.495866540938969E-4              -0.0024418571478580834            -3.9771843993193005E-4            0.29986332547286376                      -1.8410597326383162
-2.93186680572831         -2.7519965626739453      1.0690320924616776                -0.6534833670227367               -3.0089281294092853E-4            5.768611683399718E-4              -0.002227968032442814             6.756956070019027E-4              -0.5094466622107684                      -1.679796147671401
-2.814264605016489        -2.8202871980300115      0.9535664655346325                -0.8541834973855071               -3.183477310208628E-4             5.90467620197419E-4               -0.0019185866588752817            0.001238132320414229              -0.9335007827104709                      -1.446535332474598
-2.7402388635142696       -2.930435488243504       0.8252526595758506                -0.9794595975999059               -2.533406870199502E-4             6.315393886734678E-4              -0.0017117846193132934            0.0015389935629842675             -1.1603377699982373                      -1.2906151108518793
-2.680058319676479        -3.0339325180965804      0.6999266158159578                -1.069670797548856                -1.7562857544437658E-4            6.6368765557186E-4                -0.0015215910968394938            0.0017568714736974518             -1.3246087423592803                      -1.1472170271669675
-2.6179938779914944       -3.131781663630112       0.5632671376015965                -1.1457255076961474               -9.74358055681336E-5              6.837011869009707E-4              -0.0012928481357967546            0.0019555232391981186             -1.4743839929719516                      -0.974754254285416
-3.034766082846259        -2.5537770954944867      1.1815572144142659                -0.42509161810937307              -3.957585192844401E-4             4.902720516098075E-4              -0.002292336871921128             1.677525133449327E-4              -0.12647848693324823                     -1.7283276018984157
-3.1317816636301115       -2.4870941840919194      1.1988226598869942                -0.2355935761335596               -3.7449616152264366E-4            4.8114534043412966E-4             -0.0023440099398187382            -3.6485041704656114E-4            0.2750821897382175                       -1.767286967171533
-2.9321385793446972       -2.6202389848208827      1.122622230436325                 -0.6173819530688761               -4.166617828821393E-4             4.994471123196223E-4              -0.0021342793436088933            7.083078728962544E-4              -0.5340349677063833                      -1.6091587344356955
-2.8286630299830846       -2.687457086445405       1.0219662433338235                -0.7959835357587978               -4.32356859893189E-4              5.115539959719356E-4              -0.0018765370137154432            0.001205608923187096              -0.9089794805302845                      -1.4148316316486038
-2.731694902547451        -2.7287999493099635      0.9024204328796939                -0.9352796855727503               -4.6043759191046005E-4            5.089425900502197E-4              -0.0015408605101871534            0.0016176375595815845             -1.2196321048351746                      -1.161745371307434
-2.677263650772492        -2.8210145092792964      0.795217302281567                 -1.0252983437037975               -4.106351615827007E-4             5.601914733179466E-4              -0.0013675108461962326            0.0017956842206279019             -1.353871955217335                       -1.0310468632804544
-2.6139160002492665       -2.9284795904245846      0.6575230495718203                -1.1157504488082794               -3.397426765774253E-4             6.135266230821667E-4              -0.0011428765600205082            0.0019778499624181953             -1.4912174228547357                      -0.8616818620514333
-2.551423198575122        -3.0334776513078503      0.5104361518281405                -1.1876368485173305               -2.5902035820398795E-4            6.572722325838867E-4              -8.985728637152698E-4             0.002128231204099997              -1.6045986863112687                      -0.6774869355804869
-2.4870941840919194       -3.1317816636301123      0.3542994283321607                -1.2407785572272194               -1.7719898348806653E-4            6.87189761631434E-4               -6.220194118627506E-4             0.002250303696070907              -1.6966363182536586                      -0.4689770214872676
-3.034649233820899        -2.422489936735778       1.2254679517385798                -0.3817202576128183               -4.8438946905713217E-4            3.9788600051980134E-4             -0.002201571526991542             2.2218630753520702E-4             -0.1675193261430036                      -1.6598942695818764
-3.1317816636301115       -2.3561944901923444      1.242052084745708                 -0.19453388694890122              -4.576027121944764E-4             3.952220765966024E-4              -0.0022519066554967746            -3.1250206758465194E-4            0.2356136899740368                       -1.697844883650126
-2.931537607699585        -2.4888953918071777      1.1668192593808302                -0.5723864507331419               -5.110412926859468E-4             4.0038076099399057E-4             -0.0020446560903858717            7.658801279162086E-4              -0.5774420771383973                      -1.5415864922340223
-2.828232204114906        -2.5542066087488213      1.067615717906991                 -0.7480231358997025               -5.339871675168021E-4             4.0531674206004483E-4             -0.0017883635058155583            0.001262088286411045              -0.9515625945539182                      -1.3483524377193696
-2.723330463004906        -2.6177299133951935      0.9305174275291564                -0.9022001312459452               -5.540257422058998E-4             4.1169810804690714E-4             -0.0014369624790131978            0.0016964390867246412             -1.279045211216416                       -1.0834105343729485
-2.61471824199186         -2.6972604661169415      0.7511876277979166                -1.0359696217310923               -5.599642407922373E-4             4.371242140115756E-4              -0.0010023912185740187            0.0020456228712050256             -1.5423154051591672                      -0.7557616998544151
-2.5487168305986883       -2.820525534563322       0.60152187656746                  -1.1285723791936026               -4.919570652372633E-4             5.215499638187025E-4              -7.523958258015004E-4             0.0021777429211999465             -1.6419284820884104                      -0.5672754686339258
-2.4844857390672392       -2.92839986550456        0.4484822250057725                -1.195708526864207                -4.2074107156641325E-4            5.873851039496438E-4              -4.852999750417802E-4             0.0022776655973338754             -1.7172660650297402                      -0.36589619629613485
-2.4207196011499237       -3.033471100197072       0.2886048340326868                -1.2424674284876494               -3.3850487092502556E-4            6.428040741139721E-4              -2.068480335903483E-4             0.0023429739323263385             -1.7665058601855481                      -0.15595489922604622
-2.3561944901923444       -3.131781663630112       0.1245966122203983                -1.2673362572947178               -2.5284634897680994E-4            6.830933693343062E-4              8.763924890971254E-5              0.0023736366354348117             -1.7896242756245393                      0.06607638465168543
-3.0344443015857765       -2.2913126827415358      1.2594971200778409                -0.3309347593893759               -5.493464779473327E-4             2.9185356976874007E-4             -0.0021206127557150574            2.9561028134384224E-4             -0.2228779787603126                      -1.5988546899603773
-3.1317816636301115       -2.22529479629277        1.276202428564167                 -0.14636115788398096              -5.187335108508301E-4             2.972507425344206E-4              -0.0021692722641827337            -2.42242654077555E-4              0.18264098550597901                      -1.6355419555231445
-2.9309286048690844       -2.3576671322574008      1.2003663095694541                -0.5193359571042389               -5.799302649349844E-4             2.858754335571157E-4              -0.0019652300588581793            8.423897859123128E-4              -0.6351272085631054                      -1.4817025352641553
-2.8275165395047477       -2.423014588095569       1.100935078549223                 -0.6925286308029363               -6.071062120870948E-4             2.830409422061078E-4              -0.0017107548682356386            0.0013383839869715057             -1.009086410883021                       -1.2898387209449698
-2.725510715485957        -2.4878571582555953      0.9674759234576803                -0.8419123662958053               -6.298752240014273E-4             2.8535822028637826E-4             -0.0013738691361312061            0.001758108926352167              -1.3255417307020425                      -1.035840752054
-2.6231477467556514       -2.5544221181579956      0.8037299823672761                -0.964657801957164                -6.481841748771448E-4             2.9502487511064954E-4             -9.650502670652735E-4             0.002092812243019712              -1.577894248226512                       -0.7276081601350857
-2.514261578288884        -2.5933606387562143      0.6118179428892595                -1.04287531202117                 -6.790378897121974E-4             2.7520372259566756E-4             -4.569278300183679E-4             0.00235852251872391               -1.7782288540310836                      -0.3445047673270006
-2.2900933947475446       -3.0336284886193683      0.054385822334037236              -1.2281303103968757               -4.1178595614997285E-4            6.22175301554592E-4               4.986701441032764E-4              0.0023798811443933392             -1.7943323782274                         0.37597675317853857
-2.22529479629277         -3.131781663630112       -0.1084279461640795               -1.2238649911070132               -3.2310800907796804E-4            6.730766764493211E-4              7.892643844696866E-4              0.0023176097074265505             -1.7473822791220353                      0.5950728436048369
-2.4755829728127368       -2.7153884077766657      0.5122840639126046                -1.1140041070329703               -6.217997354307943E-4             3.9172782520750603E-4             -3.1818636891000967E-4            0.002367007827814085              -1.7846264276559838                      -0.239899419091106
-2.417799521722734        -2.8228409103387815      0.3732142145592387                -1.1705238687182005               -5.64366615974375E-4              4.7790245437996523E-4             -7.103481567506563E-5             0.0023991048954910246             -1.808826294911779                       -0.05355732577127361
-2.3543309530332204       -2.929012829220271       0.21681445944616975               -1.2095679452784533               -4.947666799962514E-4             5.550625351024183E-4              2.1098441719020827E-4             0.0024067782396138327             -1.8146116803883912                      0.1590735621220832
-2.9306163903294506       -2.2261652716057707      1.2223480154129458                -0.4602557721597195               -6.21221203384426E-4              1.626027121061907E-4              -0.0019002519382815672            9.340814028298166E-4              -0.7042589118142103                      -1.432711708179511
-3.034208274325466        -2.160209757113973       1.2826328485732554                -0.27505794714645854              -5.889853116789285E-4             1.784473178340513E-4              -0.002053006386039108             3.853478237251156E-4              -0.29053639028082495                     -1.5478822712873888
-3.1317816636301115       -2.0943951023931944      1.3003704575831427                -0.09330975079793048              -5.565907727778836E-4             1.9300217034646716E-4             -0.0020993320520639068            -1.5641679065330917E-4            0.11793181883425286                      -1.5828099157569764
-2.826059568156884        -2.292142185939443       1.1207629223510638                -0.6323145832558111               -6.508484097182576E-4             1.5034662155023425E-4             -0.001645085252314782             0.0014350227282424                -1.0819480421716325                      -1.2403265348468748
-2.7230562547144674       -2.356517328757172       0.985317802931808                 -0.7796668628971871               -6.772635496704104E-4             1.4288966394960137E-4             -0.0013054073803431185            0.0018565672568657127             -1.3997752573480569                      -0.9842234074776696
-2.6209627698900113       -2.419949687768176       0.8223017573382702                -0.8978061535751677               -7.007390809495169E-4             1.4112908867043865E-4             -8.970209986386973E-4             0.002187269965341269              -1.649111481042728                       -0.6763168932192983
-2.5150996142588964       -2.4691137461096977      0.6320948021934495                -0.9768087777960606               -7.259071726623399E-4             1.2592571020732523E-4             -4.113365050944159E-4             0.002436063551462277              -1.8366915995389517                      -0.3101307858069335
-2.1595535462156725       -3.0337264759407327      -0.17441293380546596              -1.1455844228825107               -4.7826450677761786E-4            5.972689609160287E-4              0.001171512340179621              0.002237690061725271              -1.6871261573925513                      0.8832720610562647
-2.0943951023931944       -3.1317816636301115      -0.3272017537246992               -1.113468859438589                -3.8701281116274033E-4            6.589301268553113E-4              0.0014362715638194178             0.0020869097540435516             -1.5734440146058095                      1.0828896127690568
-2.4338758954424424       -2.5223287880450775      0.47418078013879583               -1.0194688232642537               -7.38419053035022E-4              1.3774562650798215E-4             -1.986366846402154E-5             0.002537262771910949              -1.9129916443248913                      -0.014976388026492793
-2.3969600006524208       -2.61271970523248        0.39130549100181655               -1.0674228099593                  -7.189312772068729E-4             2.2995878664659958E-4             1.3848634384361572E-4             0.0025191589067098713             -1.8993420754891173                      0.10441300032412994
-2.2244323594728055       -2.9293380611225217      -0.01808137967922424              -1.155295450005845                -5.61552965283953E-4              5.182613155544913E-4              8.96216802110481E-4               0.0023557818333680165             -1.776162490135475                       0.6757105621542213
-2.3472970831304947       -2.7181198056308107      0.27516761420766406               -1.113789896139074                -6.813045672949049E-4             3.330334693012503E-4              3.5448156785187855E-4             0.002489609328334842              -1.8770629102601326                      0.267264504439602
-2.2880950517647074       -2.8237681374185066      0.1347712141579813                -1.1442657976816308               -6.29337354707288E-4              4.2914080793851335E-4             6.169408193127584E-4              0.002439140119691883              -1.8390112052895222                      0.4651479718434466
-2.8255231024414194       -2.1606050328719153      1.128317439027037                 -0.5677914118400745               -6.6394463837965E-4               1.4923748901989621E-5             -0.0015995809567692753            0.0015414500425216286             -1.1621898544104041                      -1.206018169894244
-2.930170637008491        -2.0949394243035306      1.2318798600670497                -0.39878368083583154              -6.346557766794596E-4             3.7746008406545995E-5             -0.0018520717229078786            0.0010398326211074438             -0.7839909755097315                      -1.396385809872091
-3.034009717975075        -2.029156736742057       1.294492717247872                 -0.2164860055850255               -6.032497045309804E-4             6.400332554127837E-5              -0.002001633428236159             4.8793889146579874E-4             -0.3678858306080028                      -1.5091491766669682
-3.1317816636301115       -1.9634954084936198      1.3142208570039597                -0.037670507920076694             -5.713201785295784E-4             8.820740068213036E-5              -0.0020446394692834975            -5.800389182261072E-5             0.04373254580620696                      -1.5415739606072971
-2.7211686180853          -2.22572519950079        0.9894786696922448                -0.7140305815780649               -6.91115405036187E-4              -2.761657884885958E-6             -0.0012572664372675136            0.001966417764105038              -1.482598016110016                       -0.9479271188657526
-2.617939415121189        -2.2891752904784015      0.8233941548362086                -0.8299376650032307               -7.162147068760374E-4             -1.4945149079424024E-5            -8.446962091874476E-4             0.0022964275530113257             -1.7314118069842184                      -0.6368661567329421
-2.028867867088751        -3.0337529792002886      -0.3809686081421673               -1.0000305158398206               -5.375031562621471E-4             5.700401465493138E-4              0.0017680866835694776             0.0019269043930674635             -1.452806561527226                       1.3330645487550743
-1.9634954084936198       -3.131781663630112       -0.515225969616032                -0.9437070375962836               -4.438679422887165E-4             6.424880924984064E-4              0.0019854832953928913             0.0016984683858691976             -1.2805752192039006                      1.4969726415733489
-2.51402323236945         -2.349927779674413       0.6346516586347852                -0.9113140304319837               -7.395892925042375E-4             -2.3785043747345593E-5            -3.733652273754855E-4             0.0025263766435255084             -1.9047839518182492                      -0.28150200608225967
-2.3998937922045624       -2.4085596342464513      0.41211715808069865               -0.9528768124478404               -7.636466652083997E-4             -3.523140853008376E-5             1.845537307242743E-4              0.0026532821903130703             -2.000465508064883                       0.13914591295509451
-2.093965101036171        -2.92941813946094        -0.24012128588879442              -1.0354863402530834               -6.210403027596851E-4             4.7888578956829716E-4             0.0015292529147038975             0.0021284096622950226             -1.604733236441324                       1.1529937223193993
-2.332858009014126        -2.512847464532268       0.27803132717750606               -0.9957647338719001               -7.713815590380514E-4             5.799452601782449E-5              5.032494189411599E-4              0.002612460151548982              -1.9696873719078656                      0.37942933782957194
-2.2778844652258403       -2.6142731266538455      0.16284191425008376               -1.0282060352395554               -7.613008843865413E-4             1.6188425973894102E-4             7.550242495123222E-4              0.0025383729152770548             -1.9138286467066996                      0.5692571918721381
-2.1589668877270656       -2.823857966051216       -0.09744483158324047              -1.052139451168751                -6.86429994789529E-4              3.7758678183519946E-4             0.0012694637368395045             0.0023002448235659866             -1.7342898717854034                      0.9571233804523963
-2.2207509370645306       -2.7187265737818156      0.03862592704106854               -1.049005810955993                -7.329271777400248E-4             2.7093846962421747E-4             0.0010072915545285802             0.0024359062973289313             -1.8365730363982093                      0.7594563513659732
-2.7201718468258016       -2.094812657918197       0.9806936495957203                -0.6476768132176821               -6.728150071002914E-4             -1.4374641689279973E-4            -0.00123297713140813              0.0020829166625915456             -1.5704333880884154                      -0.9296139824930237
-2.824806430424017        -2.029524331777075       1.1224405857503685                -0.503855805705975                -6.479369456996652E-4             -1.1551639316408481E-4            -0.0015736664677236634            0.001658459164222104              -1.2504099136808986                      -1.186479712324921
-2.92981175903691         -1.9638295200815274      1.2293421167099539                -0.33722765881742117              -6.216680646386113E-4             -8.206983247396303E-5             -0.0018233028557386056            0.0011547985357236677             -0.8706705407789469                      -1.3746952687421858
-3.0338889899007024       -1.8981508812626149      1.295302404520422                 -0.1575993233133897               -5.936276692298095E-4             -4.549328674988851E-5             -0.0019685007510560205            5.995460502649743E-4              -0.4520330323063366                      -1.4841685024926567
-3.1317816636301115       -1.832595714594045       1.3179649280795587                0.018346567697385976              -5.644052828854914E-4             -1.1792097905953815E-5            -0.0020069408231720943            4.955714080778135E-5              -0.03736404338227728                     -1.5131507338875987
-2.616186341569567        -2.159366635718942       0.8114189438538865                -0.7619044675152468               -6.967753742163287E-4             -1.6571234424150164E-4            -8.18809151662508E-4              0.002411164575074383              -1.8179187966942507                      -0.617348381400563
-2.5133592147186334       -2.222093263617824       0.6234587765979455                -0.841161512184264                -7.198976349626686E-4             -1.813462505374942E-4             -3.5359532735749545E-4            0.0026318109828224003             -1.9842771018115242                      -0.266596315602645
-1.898045560067182        -3.033759104073078       -0.5496122518998225               -0.8009178600561756               -5.891355773024676E-4             5.425329532581599E-4              0.0022480423271526045             0.0014696266816305555             -1.10803799801893                        1.6949313392135135
-1.832595714594045        -3.131781663630112       -0.6582310919768934               -0.7261109694578962               -4.932229580865054E-4             6.255545672009747E-4              0.00240004585148038               0.0011802626078373508             -0.8898694025299803                      1.8095357369787348
-1.9633566246144645       -2.929419504222507       -0.43189673293793335              -0.8576255570429528               -6.727022985453705E-4             4.393700469347928E-4              0.0020651513614190894             0.0017408213724871733             -1.312507626997584                       1.557039082587993
-2.412607334568891        -2.2807777279396872      0.4269809166137782                -0.8819179441930078               -7.416782295777423E-4             -1.9225299673348892E-4            1.3579620357181274E-4             0.0027408707685332226             -2.0665036891032833                      0.10238474534045511
-2.321643754519302        -2.319515729371676       0.2439645222190728                -0.8789779704202048               -7.562365793237814E-4             -2.1376115306387622E-4            5.889071286410294E-4              0.002754136786345003              -2.0765057202323995                      0.4440117235177693